977 TIP4P/2005f water molecules t=   1.28000 step= 1280
 3908
    1SOL     OW    1   0.379   0.823   0.034 -0.9108  0.8040  0.5170
    1SOL    HW1    2   0.342   0.847  -0.051 -2.1276  1.2659 -0.2380
    1SOL    HW2    3   0.327   0.745   0.061 -0.5858 -2.0297  1.2332
    1SOL     MW    4   0.367   0.816   0.026 -1.0285  0.4911  0.5119
    2SOL     OW    5   0.347   3.044   1.186 -0.3168  0.3231 -0.3590
    2SOL    HW1    6   0.394   3.101   1.126  0.2675  0.0196  0.5977
    2SOL    HW2    7   0.253   3.073   1.192  0.8842 -1.3424  0.4109
    2SOL     MW    8   0.340   3.056   1.179 -0.0812  0.0633 -0.1312
    3SOL     OW    9   2.595   0.327   0.970  0.7033 -0.0828  0.1832
    3SOL    HW1   10   2.621   0.389   0.908 -0.9438  1.6513  1.0855
    3SOL    HW2   11   2.578   0.392   1.056 -1.3447 -0.2686 -0.3544
    3SOL     MW   12   2.596   0.344   0.973  0.2158  0.1214  0.2313
    4SOL     OW   13   3.063   1.741   0.562 -0.0479  0.2794  0.3647
    4SOL    HW1   14   3.036   1.821   0.522  0.8190 -0.3182  0.2776
    4SOL    HW2   15   3.088   1.696   0.481 -0.7456 -1.0594 -0.3996
    4SOL     MW   16   3.062   1.746   0.546 -0.0255  0.0239  0.2524
    5SOL     OW   17   1.653   1.512   0.563 -0.3134 -0.1092  0.4416
    5SOL    HW1   18   1.693   1.479   0.647  0.2815  0.0688 -0.9588
    5SOL    HW2   19   1.551   1.496   0.559 -2.4978  1.6963 -3.6658
    5SOL     MW   20   1.645   1.505   0.574 -0.5231  0.1525 -0.2851
    6SOL     OW   21   0.840   1.375   0.568  0.0877 -0.1975 -0.0341
    6SOL    HW1   22   0.758   1.411   0.546  1.7727 -0.1524  0.5026
    6SOL    HW2   23   0.836   1.294   0.620  0.6875  0.7930 -0.1353
    6SOL     MW   24   0.829   1.369   0.572  0.3892 -0.0608  0.0234
    7SOL     OW   25   2.050   1.065   0.010 -0.8082  0.4488  0.0404
    7SOL    HW1   26   2.102   1.143   0.001 -0.1908 -1.3716 -0.4093
    7SOL    HW2   27   2.039   1.058   0.105  0.3404  0.3459  2.4827
    7SOL     MW   28   2.055   1.074   0.022 -0.5752  0.1950  0.3033
    8SOL     OW   29   0.862   1.530   1.197 -0.2920  0.4011 -0.0917
    8SOL    HW1   30   0.953   1.536   1.169 -2.9791  1.5341 -1.2719
    8SOL    HW2   31   0.843   1.439   1.217 -1.4504  2.7222  0.0154
    8SOL     MW   32   0.871   1.519   1.196 -0.7994  0.8569 -0.2333
    9SOL     OW   33   1.019   0.517   1.364  0.1680  0.1458 -0.9165
    9SOL    HW1   34   0.961   0.447   1.328  0.4123  1.3956  0.3320
    9SOL    HW2   35   1.033   0.495   1.455 -0.2217  0.6901  1.1807
    9SOL     MW   36   1.013   0.505   1.371  0.1488  0.3825 -0.4751
   10SOL     OW   37   0.254   0.801   0.521  0.3975 -0.5271  0.0498
   10SOL    HW1   38   0.336   0.843   0.487  0.4769 -0.8784  1.2987
   10SOL    HW2   39   0.232   0.839   0.604  0.0653 -1.0543 -0.2506
   10SOL     MW   40   0.262   0.812   0.528  0.3642 -0.6430  0.1750
   11SOL     OW   41   0.757   1.112   1.605 -0.4793  0.4072 -0.0697
   11SOL    HW1   42   0.782   1.109   1.701 -2.0779  0.4088  0.1244
   11SOL    HW2   43   0.757   1.026   1.556  2.1667 -0.4704 -3.0277
   11SOL     MW   44   0.760   1.101   1.612 -0.3411  0.2916 -0.4344
   12SOL     OW   45   3.074   1.096   0.874 -0.4439  0.5984  0.2775
   12SOL    HW1   46   3.121   1.169   0.917 -0.2487  1.7508  1.1856
   12SOL    HW2   47   3.019   1.141   0.809  0.4929  0.9561  3.4716
   12SOL     MW   48   3.073   1.112   0.871 -0.2945  0.7976  0.8188
   13SOL     OW   49   1.856   1.417   1.332  0.3193  0.0613  0.1696
   13SOL    HW1   50   1.880   1.354   1.258  0.6944 -0.7320 -1.8272
   13SOL    HW2   51   1.880   1.501   1.299 -0.7137  0.0447 -0.6017
   13SOL     MW   52   1.863   1.419   1.318  0.2325 -0.0456 -0.1956
   14SOL     OW   53   0.551   0.317   1.874 -0.2800 -0.2008  0.4383
   14SOL    HW1   54   0.493   0.245   1.884  0.8723  1.9421 -2.2367
   14SOL    HW2   55   0.600   0.303   1.792  0.3698  1.5744 -0.2517
   14SOL     MW   56   0.550   0.305   1.864 -0.0423  0.3161 -0.0057
   15SOL     OW   57   1.980   0.340   1.054  0.0293  0.3303  0.0210
   15SOL    HW1   58   1.948   0.417   1.109  3.0756  0.7448  1.2328
   15SOL    HW2   59   2.044   0.378   0.994  2.1046  0.8255  1.0619
   15SOL     MW   60   1.984   0.355   1.053  0.7051  0.4503  0.3182
   16SOL     OW   61   0.220   1.838   0.314 -0.0755  0.0689 -0.0027
   16SOL    HW1   62   0.304   1.806   0.281  0.7413  1.6741 -0.8360
   16SOL    HW2   63   0.227   1.935   0.315 -0.3522 -0.3894 -0.6195
   16SOL     MW   64   0.232   1.846   0.310 -0.0042  0.2202 -0.1940
   17SOL     OW   65   1.027   0.909   1.420  0.5039 -0.7340 -0.6686
   17SOL    HW1   66   1.060   0.914   1.514  0.1304 -0.9206  0.2878
   17SOL    HW2   67   0.931   0.908   1.430  1.1053  0.3599  1.1092
   17SOL     MW   68   1.018   0.910   1.434  0.5340 -0.6143 -0.3078
   18SOL     OW   69   0.083   1.594   0.360 -0.0220 -0.4012 -0.0978
   18SOL    HW1   70   0.142   1.672   0.352  0.0020  0.4846 -0.4167
   18SOL    HW2   71   0.078   1.564   0.270  3.7772  1.7158  1.1896
   18SOL     MW   72   0.090   1.600   0.347  0.4824 -0.0050  0.0300
   19SOL     OW   73   0.088   1.328   0.978 -0.1905  0.4870 -0.3413
   19SOL    HW1   74   0.117   1.362   0.895  1.1226 -1.1700  1.6811
   19SOL    HW2   75  -0.007   1.345   0.991 -0.6120 -0.5608 -2.2573
   19SOL     MW   76   0.079   1.334   0.969 -0.0729  0.1301 -0.3273
   20SOL     OW   77   0.424   2.176   1.180 -0.5062  0.1204  0.2798
   20SOL    HW1   78   0.385   2.100   1.140  0.6679 -0.4715  1.1391
   20SOL    HW2   79   0.390   2.173   1.275  0.8167  0.4366  1.2483
   20SOL     MW   80   0.414   2.166   1.187 -0.1768  0.0841  0.5210
   21SOL     OW   81   0.508   0.848   0.412 -0.0993  0.1512 -0.0950
   21SOL    HW1   82   0.576   0.819   0.478  0.3824 -1.8625 -0.8195
   21SOL    HW2   83   0.537   0.837   0.317 -1.1821 -2.0824 -0.5541
   21SOL     MW   84   0.520   0.843   0.408 -0.1786 -0.4092 -0.2511
   22SOL     OW   85   1.535   0.714   0.987  0.1381  0.0397 -0.5266
   22SOL    HW1   86   1.515   0.686   0.901  1.0799  0.8004  1.5776
   22SOL    HW2   87   1.449   0.710   1.030 -2.3362 -1.1302 -2.1336
   22SOL     MW   88   1.521   0.710   0.981 -0.0641 -0.0143 -0.4610
   23SOL     OW   89   3.084   0.659   0.697  0.1107  0.2973 -0.3299
   23SOL    HW1   90   3.153   0.599   0.727  0.5285 -1.9513 -1.9016
   23SOL    HW2   91   3.118   0.746   0.708  0.3821  0.1275  1.7635
   23SOL     MW   92   3.098   0.663   0.702  0.2016 -0.0218 -0.2610
   24SOL     OW   93   2.049   2.224   0.047  0.1901  0.1300  0.1408
   24SOL    HW1   94   2.058   2.225   0.149  3.2122  0.5958  1.2985
   24SOL    HW2   95   2.055   2.131   0.031  1.4764  1.3868  1.2322
   24SOL     MW   96   2.051   2.212   0.058  0.7585  0.3573  0.4375
   25SOL     OW   97   0.214   1.378   0.502  0.4282 -0.5910 -0.7967
   25SOL    HW1   98   0.160   1.446   0.456  0.1303  1.1915 -3.2298
   25SOL    HW2   99   0.305   1.368   0.462  2.7539 -1.6279  0.6632
   25SOL     MW  100   0.219   1.386   0.491  0.6958 -0.4926 -0.9251
   26SOL     OW  101   2.051   1.052   0.279 -0.1831 -0.9145  0.0064
   26SOL    HW1  102   1.987   1.096   0.339  1.0879 -1.1482 -0.3118
   26SOL    HW2  103   2.132   1.117   0.273  0.0651  2.3219  2.2855
   26SOL     MW  104   2.053   1.067   0.286  0.0174 -0.5183  0.2651
   27SOL     OW  105   1.964   1.460   0.216 -0.0399 -0.2095  0.4834
   27SOL    HW1  106   1.887   1.521   0.217  0.0821  1.2920  2.9440
   27SOL    HW2  107   2.007   1.480   0.300  0.0698 -0.6736  1.1184
   27SOL     MW  108   1.959   1.471   0.227 -0.0093 -0.0726  0.8919
   28SOL     OW  109   0.444   1.008   1.982  0.1828 -0.1266  0.2393
   28SOL    HW1  110   0.493   0.999   2.059 -1.5603 -2.2831  0.7326
   28SOL    HW2  111   0.357   0.959   1.993 -0.6714  1.7762  0.1817
   28SOL     MW  112   0.439   1.000   1.994 -0.1599 -0.1601  0.2968
   29SOL     OW  113   0.251   1.427   0.772  0.3552  0.0869 -0.6414
   29SOL    HW1  114   0.268   1.524   0.781 -0.5755 -0.0360 -1.5984
   29SOL    HW2  115   0.242   1.413   0.679  1.8925  0.2281  2.5152
   29SOL     MW  116   0.252   1.438   0.761  0.4352  0.0893 -0.3512
   30SOL     OW  117   0.830   1.252   1.243  0.2470  0.3277  0.0432
   30SOL    HW1  118   0.762   1.237   1.313  0.2841 -0.9106  2.2779
   30SOL    HW2  119   0.914   1.231   1.296  2.3713 -0.2105 -1.4481
   30SOL     MW  120   0.832   1.247   1.259  0.5322  0.0933  0.1413
   31SOL     OW  121   0.410   0.257   0.193  0.3469 -0.4369  0.2069
   31SOL    HW1  122   0.437   0.177   0.242 -1.4137  0.0307 -0.5740
   31SOL    HW2  123   0.414   0.223   0.103 -1.0150 -0.6576  1.3796
   31SOL     MW  124   0.414   0.242   0.188 -0.0651 -0.4043  0.2586
   32SOL     OW  125   2.729   0.975   1.161 -1.0258 -0.0404 -0.4512
   32SOL    HW1  126   2.669   0.901   1.136  0.9178  1.5164  0.6966
   32SOL    HW2  127   2.818   0.936   1.142 -0.1761 -0.5135  0.8426
   32SOL     MW  128   2.732   0.960   1.155 -0.6573  0.1026 -0.1291
   33SOL     OW  129   1.635   1.318   0.366 -0.3341  0.6596  0.5190
   33SOL    HW1  130   1.710   1.262   0.382  0.5312 -0.0962  0.9846
   33SOL    HW2  131   1.649   1.384   0.436 -2.4800 -0.3337  0.2620
   33SOL     MW  132   1.647   1.319   0.378 -0.5031  0.4288  0.5465
   34SOL     OW  133   1.239   1.907   1.097 -0.0414  0.4411 -0.4001
   34SOL    HW1  134   1.173   1.949   1.148  0.7198  0.6144 -1.2446
   34SOL    HW2  135   1.315   1.915   1.151 -0.5820 -0.6604 -1.7336
   34SOL     MW  136   1.240   1.914   1.111 -0.0123  0.3186 -0.6875
   35SOL     OW  137   0.360   0.112   1.832  0.4085  0.1088 -0.4260
   35SOL    HW1  138   0.373   0.039   1.893  0.9706  0.1204 -1.6373
   35SOL    HW2  139   0.384   0.068   1.748 -0.0146  0.7131 -2.9938
   35SOL     MW  140   0.365   0.096   1.829  0.4268  0.1900 -0.9246
   36SOL     OW  141   1.972   1.911   0.575 -0.5096 -0.5734  0.0190
   36SOL    HW1  142   1.964   1.915   0.478 -0.9876  0.4941 -0.5909
   36SOL    HW2  143   1.950   1.820   0.590 -0.1427 -0.8614  0.8959
   36SOL     MW  144   1.968   1.900   0.564 -0.5243 -0.4705  0.0543
   37SOL     OW  145   1.788   2.004   0.963  0.0479 -0.4429  0.2186
   37SOL    HW1  146   1.739   1.965   0.894 -0.9809  0.7379 -1.1939
   37SOL    HW2  147   1.731   2.044   1.024  0.6001  1.4679 -0.1269
   37SOL     MW  148   1.774   2.004   0.962 -0.0150 -0.0350 -0.0134
   38SOL     OW  149   2.828   0.958   0.131 -0.0509 -0.0802 -0.0204
   38SOL    HW1  150   2.851   0.938   0.225  2.2188  0.0729 -1.4228
   38SOL    HW2  151   2.904   0.918   0.086 -0.7761  2.0653  1.7319
   38SOL     MW  152   2.841   0.950   0.138  0.1529  0.2231  0.0258
   39SOL     OW  153   1.451   0.570   0.761 -0.0954 -0.2126 -0.2389
   39SOL    HW1  154   1.399   0.496   0.791 -0.1199 -0.9980  0.1787
   39SOL    HW2  155   1.381   0.632   0.732 -1.0065  1.1200 -0.4906
   39SOL     MW  156   1.435   0.569   0.761 -0.2188 -0.1404 -0.2170
   40SOL     OW  157   1.190   1.886   0.241  0.4367 -0.4734 -0.4929
   40SOL    HW1  158   1.241   1.846   0.310 -0.7275  1.5259 -0.6649
   40SOL    HW2  159   1.165   1.970   0.277  2.3939  0.9760 -1.3545
   40SOL     MW  160   1.193   1.892   0.255  0.5413 -0.0184 -0.6293
   41SOL     OW  161   0.564   0.468   1.582 -0.1600 -0.0683  0.2570
   41SOL    HW1  162   0.652   0.496   1.565 -0.1905  0.6010 -1.4233
   41SOL    HW2  163   0.520   0.550   1.582  0.7388 -5.4028  0.1382
   41SOL     MW  164   0.569   0.483   1.580 -0.0454 -0.6838  0.0196
   42SOL     OW  165   1.314   3.000   1.993  0.0091 -0.2388 -0.2356
   42SOL    HW1  166   1.238   2.977   2.050 -0.0753  1.0126  0.1415
   42SOL    HW2  167   1.374   2.927   2.023  1.5778 -0.5650 -1.1219
   42SOL     MW  168   1.312   2.987   2.005  0.2050 -0.1167 -0.3027
   43SOL     OW  169   1.484   0.153   1.628 -0.0523 -0.2727 -0.1102
   43SOL    HW1  170   1.560   0.115   1.587  1.3026 -0.9044 -2.8112
   43SOL    HW2  171   1.405   0.092   1.628 -1.7403 -0.4823 -0.0940
   43SOL     MW  172   1.484   0.140   1.623 -0.0962 -0.3837 -0.4644
   44SOL     OW  173   1.228   0.754   1.030  0.5522 -0.6985  0.5674
   44SOL    HW1  174   1.200   0.847   1.020  2.5888  0.4461  0.1993
   44SOL    HW2  175   1.236   0.740   1.129  2.5694  1.1732  0.0124
   44SOL     MW  176   1.225   0.764   1.042  1.0871 -0.3005  0.4456
   45SOL     OW  177   1.231   0.756   0.718  0.6618  0.0278  0.5291
   45SOL    HW1  178   1.178   0.771   0.795  0.0331 -0.8705  0.7549
   45SOL    HW2  179   1.162   0.715   0.667  1.7103  0.0639  1.6848
   45SOL     MW  180   1.215   0.753   0.722  0.7172 -0.0860  0.7114
   46SOL     OW  181   0.562   1.089   0.580  0.6657 -0.1631  0.2870
   46SOL    HW1  182   0.547   1.035   0.501  0.7317 -1.6752 -1.9277
   46SOL    HW2  183   0.657   1.075   0.579  1.3765 -2.0723 -0.4546
   46SOL     MW  184   0.573   1.080   0.570  0.7682 -0.6145 -0.1031
   47SOL     OW  185   0.220   1.938   1.972  0.0949 -0.2872 -0.1368
   47SOL    HW1  186   0.301   1.905   2.013  2.9532 -0.3918 -1.4572
   47SOL    HW2  187   0.169   1.928   2.053  0.0673  1.1792 -1.9977
   47SOL     MW  188   0.224   1.932   1.988  0.4684 -0.1075 -0.5566
   48SOL     OW  189   1.080   0.521   1.034  0.4247 -0.0629 -0.2670
   48SOL    HW1  190   0.986   0.512   1.028  1.5829  2.7733 -1.3113
   48SOL    HW2  191   1.099   0.613   1.065 -1.6544 -0.1265  0.8952
   48SOL     MW  192   1.070   0.532   1.038  0.3032  0.3029 -0.2515
   49SOL     OW  193   1.734   0.648   1.515 -0.6968  0.2454 -0.0740
   49SOL    HW1  194   1.718   0.603   1.598  0.7196  0.7807  1.4954
   49SOL    HW2  195   1.813   0.608   1.485  0.1048  1.7935 -0.4731
   49SOL     MW  196   1.742   0.637   1.522 -0.4041  0.5203  0.0804
   50SOL     OW  197   1.243   1.141   0.556 -0.6318  0.2336  0.6290
   50SOL    HW1  198   1.189   1.158   0.632  0.1177  2.1862 -0.9750
   50SOL    HW2  199   1.328   1.107   0.594  1.7693 -0.0081 -0.0554
   50SOL     MW  200   1.247   1.139   0.571 -0.2161  0.4593  0.3271
   51SOL     OW  201   0.331   2.930   0.914 -0.2790 -0.0359  0.0252
   51SOL    HW1  202   0.416   2.881   0.899 -1.0175  1.0378 -0.5617
   51SOL    HW2  203   0.323   2.954   1.004  1.3542 -1.1170 -0.1092
   51SOL     MW  204   0.341   2.926   0.924 -0.1610 -0.0369 -0.0700
   52SOL     OW  205   0.799   1.788   0.458 -0.0928 -0.2263  0.2845
   52SOL    HW1  206   0.759   1.879   0.452  1.7829  1.4265  1.5535
   52SOL    HW2  207   0.784   1.749   0.372  1.1627  1.7906 -0.3665
   52SOL     MW  208   0.792   1.795   0.446  0.3203  0.2579  0.3660
   53SOL     OW  209   0.442   2.137   0.469 -0.2372 -0.6562  0.5771
   53SOL    HW1  210   0.370   2.121   0.413 -0.5048  1.1955 -1.1465
   53SOL    HW2  211   0.439   2.224   0.514  2.7066  0.7484 -0.8520
   53SOL     MW  212   0.433   2.147   0.468  0.1159 -0.2266  0.1611
   54SOL     OW  213   2.065   0.931   0.774  0.5551  0.1464 -0.3220
   54SOL    HW1  214   2.094   0.936   0.679  1.6059 -0.6287  0.1067
   54SOL    HW2  215   2.044   0.842   0.794 -0.9821  1.6367  0.7354
   54SOL     MW  216   2.066   0.920   0.764  0.4909  0.2408 -0.1259
   55SOL     OW  217   0.523   1.584   1.648 -0.0498  0.1983 -0.1506
   55SOL    HW1  218   0.479   1.602   1.562 -3.1088 -0.2650 -2.4573
   55SOL    HW2  219   0.598   1.524   1.629  1.9190 -2.0137  4.1140
   55SOL     MW  220   0.527   1.579   1.634 -0.1936 -0.1547  0.1077
   56SOL     OW  221   0.631   0.852   0.170  0.0707  0.2792 -0.3485
   56SOL    HW1  222   0.671   0.940   0.167 -0.2152 -1.2609 -0.5302
   56SOL    HW2  223   0.563   0.857   0.108  1.4679  2.0135  0.6215
   56SOL     MW  224   0.628   0.864   0.162  0.2173  0.3048 -0.2445
   57SOL     OW  225   1.208   1.238   1.164  0.4164 -0.5718  0.2147
   57SOL    HW1  226   1.302   1.248   1.171  0.8717 -0.9345  0.2405
   57SOL    HW2  227   1.172   1.208   1.253 -1.7988 -1.0936  2.0360
   57SOL     MW  228   1.216   1.236   1.177  0.1842 -0.6885  0.4584
   58SOL     OW  229   0.525   1.213   1.289 -0.0145 -0.5286 -0.1983
   58SOL    HW1  230   0.512   1.305   1.264 -0.5738  0.1805  0.9897
   58SOL    HW2  231   0.498   1.208   1.384  1.2329  0.1152 -0.1441
   58SOL     MW  232   0.520   1.225   1.298  0.0763 -0.3501 -0.0344
   59SOL     OW  233   1.513   1.699   0.319  0.1286 -0.4605 -0.5055
   59SOL    HW1  234   1.551   1.756   0.386 -3.4809  0.7473 -0.7695
   59SOL    HW2  235   1.420   1.690   0.342  1.1783 -0.3031 -0.2212
   59SOL     MW  236   1.506   1.706   0.331 -0.2091 -0.2804 -0.5028
   60SOL     OW  237   3.093   0.215   1.670 -0.4909  0.2782 -0.4309
   60SOL    HW1  238   3.016   0.267   1.722  0.8307  0.2549  0.0284
   60SOL    HW2  239   3.128   0.162   1.742  0.5394  0.0282  0.2487
   60SOL     MW  240   3.088   0.215   1.686 -0.1806  0.2422 -0.2806
   61SOL     OW  241   1.997   1.361   3.060 -0.4561 -0.0252  0.0350
   61SOL    HW1  242   1.992   1.388   3.151 -3.7536  0.5936 -3.6057
   61SOL    HW2  243   2.086   1.338   3.035  2.3357 -1.6379  0.3576
   61SOL     MW  244   2.008   1.362   3.069 -0.5228 -0.1563 -0.4028
   62SOL     OW  245   0.552   1.692   0.512 -0.7979  0.0677  0.2363
   62SOL    HW1  246   0.652   1.702   0.513  3.9053 -1.0360  0.6193
   62SOL    HW2  247   0.539   1.598   0.518  2.8108  3.6797  1.1747
   62SOL     MW  248   0.564   1.681   0.513  0.2988  0.3987  0.4106
   63SOL     OW  249   1.726   0.623   0.716 -0.1031  0.3261 -0.1744
   63SOL    HW1  250   1.755   0.710   0.687 -0.3500  0.1699 -0.5691
   63SOL    HW2  251   1.631   0.627   0.707  0.8545  1.3582 -0.3302
   63SOL     MW  252   1.717   0.635   0.711 -0.0093  0.4417 -0.2470
   64SOL     OW  253   0.293   1.695   0.808  0.4772 -0.0655 -0.7227
   64SOL    HW1  254   0.354   1.735   0.745  0.7613  0.2783 -2.3613
   64SOL    HW2  255   0.202   1.725   0.796  1.5088 -0.7235  0.4263
   64SOL     MW  256   0.289   1.704   0.798  0.6508 -0.1070 -0.7873
   65SOL     OW  257   1.578   2.301   0.431  0.1330  0.1195 -0.6584
   65SOL    HW1  258   1.656   2.354   0.447 -2.8574  3.9043 -0.7720
   65SOL    HW2  259   1.519   2.326   0.505  1.2012  0.8058  0.8058
   65SOL     MW  260   1.581   2.311   0.443 -0.1206  0.7094 -0.4802
   66SOL     OW  261   0.325   0.542   0.463 -0.0109 -0.1403 -0.0014
   66SOL    HW1  262   0.373   0.546   0.382 -1.4201  1.4760 -0.2940
   66SOL    HW2  263   0.304   0.638   0.476  1.3825 -0.3334 -2.9203
   66SOL     MW  264   0.328   0.555   0.454 -0.0130  0.0474 -0.4251
   67SOL     OW  265   1.461   0.124   1.994  0.2697  0.2392  0.1595
   67SOL    HW1  266   1.482   0.153   1.903 -0.8406 -0.7946 -0.1526
   67SOL    HW2  267   1.424   0.035   1.991 -1.0686  1.6166 -1.6060
   67SOL     MW  268   1.459   0.116   1.982 -0.0534  0.2845 -0.1146
   68SOL     OW  269   0.742   0.060   2.951  0.7324 -0.6074 -0.5791
   68SOL    HW1  270   0.740   0.124   2.881  2.1363  0.9055  0.9645
   68SOL    HW2  271   0.804   0.074   3.015 -2.3849  0.4432  1.1790
   68SOL     MW  272   0.750   0.070   2.951  0.5063 -0.2692 -0.1435
   69SOL     OW  273   0.949   0.192   1.978 -0.2200 -0.0366 -0.7788
   69SOL    HW1  274   1.041   0.211   2.008 -1.8479  3.6953  1.1446
   69SOL    HW2  275   0.937   0.102   1.996  1.1578  0.7870 -0.3611
   69SOL     MW  276   0.960   0.182   1.984 -0.2530  0.5645 -0.4699
   70SOL     OW  277   0.545   1.729   1.128 -0.4207 -0.2520  0.1525
   70SOL    HW1  278   0.586   1.711   1.215  1.2665  1.6641 -1.5870
   70SOL    HW2  279   0.619   1.727   1.065 -0.4005 -3.6722  0.5471
   70SOL     MW  280   0.560   1.726   1.131 -0.1955 -0.4504 -0.0250
   71SOL     OW  281   1.566   0.514   1.192 -0.9721  0.1942 -0.0628
   71SOL    HW1  282   1.552   0.597   1.234  0.9336  1.0437 -1.2887
   71SOL    HW2  283   1.565   0.533   1.100  1.0903 -2.5950  1.1064
   71SOL     MW  284   1.564   0.527   1.185 -0.4485 -0.0617 -0.0703
   72SOL     OW  285   0.815   1.846   1.020 -0.2574  0.0151 -0.4912
   72SOL    HW1  286   0.776   1.923   0.974  1.9058  3.6945  1.1708
   72SOL    HW2  287   0.806   1.776   0.956 -1.8250  2.1889 -0.9495
   72SOL     MW  288   0.809   1.847   1.005 -0.1788  0.7874 -0.3324
   73SOL     OW  289   1.191   0.726   1.304  0.0736 -0.1478  0.4729
   73SOL    HW1  290   1.134   0.652   1.298 -0.4400  2.7270 -0.1936
   73SOL    HW2  291   1.142   0.797   1.350 -2.6813  0.2319 -0.2246
   73SOL     MW  292   1.177   0.726   1.309 -0.3577  0.2816  0.2929
   74SOL     OW  293   2.814   0.271   1.129  0.8536  0.5227 -0.4706
   74SOL    HW1  294   2.873   0.316   1.075 -0.6962 -1.2061  0.6716
   74SOL    HW2  295   2.732   0.269   1.079  0.3974  0.8397  1.9276
   74SOL     MW  296   2.811   0.277   1.116  0.5889  0.3364 -0.0035
   75SOL     OW  297   1.591   1.386   0.108  0.4350 -0.5740 -0.2060
   75SOL    HW1  298   1.663   1.332   0.069 -0.1313 -0.1209 -0.1734
   75SOL    HW2  299   1.601   1.378   0.205 -1.6762 -0.4449 -1.2163
   75SOL     MW  300   1.602   1.378   0.116  0.0818 -0.4972 -0.3350
   76SOL     OW  301   2.967   0.579   0.442 -0.3982  0.5289 -0.4200
   76SOL    HW1  302   2.996   0.600   0.534  0.3691 -2.8421  0.5801
   76SOL    HW2  303   3.039   0.523   0.410 -0.1869 -0.1293 -0.3860
   76SOL     MW  304   2.980   0.575   0.450 -0.2691 -0.0027 -0.2836
   77SOL     OW  305   0.818   0.539   0.473  0.4723 -0.0825  0.1038
   77SOL    HW1  306   0.813   0.566   0.378 -0.6481 -0.5117 -0.4387
   77SOL    HW2  307   0.811   0.441   0.465  0.2964  0.1003 -1.6232
   77SOL     MW  308   0.817   0.530   0.459  0.3013 -0.1150 -0.1956
   78SOL     OW  309   0.738   0.841   1.175 -0.2357 -0.0628 -0.2976
   78SOL    HW1  310   0.761   0.920   1.123 -3.4021 -0.4769  3.4423
   78SOL    HW2  311   0.640   0.843   1.175 -1.6140 -1.2692  0.0414
   78SOL     MW  312   0.728   0.852   1.168 -0.8353 -0.2766  0.2405
   79SOL     OW  313   1.908   1.644   0.634 -0.2308 -0.3702 -0.1026
   79SOL    HW1  314   1.815   1.647   0.604  0.3917 -0.0513 -1.7617
   79SOL    HW2  315   1.891   1.642   0.730 -1.9159  1.5539  1.7184
   79SOL     MW  316   1.893   1.644   0.643 -0.3710 -0.0742 -0.0812
   80SOL     OW  317   0.070   0.927   0.363  0.0311 -0.1166 -0.0122
   80SOL    HW1  318  -0.021   0.912   0.355 -0.3201  1.4924  1.3193
   80SOL    HW2  319   0.096   0.871   0.436  0.8380  2.1078  0.1401
   80SOL     MW  320   0.062   0.918   0.371  0.0913  0.3891  0.1836
   81SOL     OW  321   1.874   1.905   0.308  0.0020  0.4275 -0.0790
   81SOL    HW1  322   1.827   1.818   0.278 -1.6799  0.9244 -0.9203
   81SOL    HW2  323   1.819   1.967   0.271  1.8653 -1.2119  1.3899
   81SOL     MW  324   1.861   1.901   0.299  0.0259  0.2768  0.0038
   82SOL     OW  325   0.824   1.014   0.504 -0.4921  0.4861 -0.6367
   82SOL    HW1  326   0.823   1.047   0.414 -0.3591  0.7210  0.8152
   82SOL    HW2  327   0.801   0.918   0.515 -1.0902 -1.5976  1.2850
   82SOL     MW  328   0.821   1.005   0.494 -0.5534  0.2422 -0.1916
   83SOL     OW  329   0.045   0.741   1.484 -0.2900 -0.0652  0.0544
   83SOL    HW1  330   0.067   0.817   1.429  1.3544 -1.2544  0.6588
   83SOL    HW2  331   0.127   0.699   1.501  0.0607  2.2465 -0.1971
   83SOL     MW  332   0.058   0.745   1.479 -0.0267  0.0829  0.1009
   84SOL     OW  333   0.044   0.181   0.909 -0.3034  0.1952 -0.2969
   84SOL    HW1  334   0.004   0.241   0.973 -2.2931 -1.3267 -3.1401
   84SOL    HW2  335   0.077   0.110   0.960 -0.7372  1.6183  0.0866
   84SOL     MW  336   0.043   0.180   0.924 -0.6232  0.1822 -0.6215
   85SOL     OW  337   0.440   0.456   0.723 -0.2158  0.3360 -0.5710
   85SOL    HW1  338   0.419   0.469   0.635  1.3767 -0.1359  0.6565
   85SOL    HW2  339   0.432   0.361   0.739 -1.0718 -2.2508 -0.2002
   85SOL     MW  340   0.436   0.445   0.713 -0.1186 -0.0675 -0.3601
   86SOL     OW  341   1.203   0.251   1.125  0.4606 -0.1025  0.0372
   86SOL    HW1  342   1.169   0.333   1.164  1.2878 -0.4814  0.4505
   86SOL    HW2  343   1.293   0.256   1.163  0.5596 -3.3832  0.6798
   86SOL     MW  344   1.210   0.262   1.136  0.5828 -0.5853  0.1765
   87SOL     OW  345   1.150   1.500   1.219 -0.2750 -0.6552 -0.0977
   87SOL    HW1  346   1.180   1.565   1.151 -1.6573  0.1990 -2.3297
   87SOL    HW2  347   1.183   1.417   1.185 -1.2003  2.3353  1.6363
   87SOL     MW  348   1.158   1.497   1.205 -0.5795 -0.1479 -0.1634
   88SOL     OW  349   1.181   1.037   0.968  0.1357  0.1891  0.5023
   88SOL    HW1  350   1.274   1.023   0.958 -1.6315 -1.6260 -1.4677
   88SOL    HW2  351   1.165   1.099   1.042 -1.3266  0.5007 -1.8614
   88SOL     MW  352   1.191   1.043   0.977 -0.2904 -0.0093 -0.0694
   89SOL     OW  353   1.744   0.751   0.342 -1.0311 -0.2321 -0.3340
   89SOL    HW1  354   1.715   0.661   0.359  0.8724 -0.7300  0.1997
   89SOL    HW2  355   1.842   0.749   0.336  1.1902  1.2242  0.0546
   89SOL     MW  356   1.753   0.739   0.343 -0.4869 -0.1057 -0.2123
   90SOL     OW  357   0.833   1.165   2.831 -0.2695 -0.1384  0.6197
   90SOL    HW1  358   0.845   1.070   2.830  0.6352  0.8452  3.5175
   90SOL    HW2  359   0.845   1.192   2.926  2.1403  0.5769  0.7497
   90SOL     MW  360   0.836   1.156   2.844  0.1678  0.0857  1.0192
   91SOL     OW  361   2.161   0.695   0.515  0.1401 -0.0075  0.5493
   91SOL    HW1  362   2.213   0.759   0.474 -1.4042 -0.4498  0.4078
   91SOL    HW2  363   2.184   0.604   0.469  2.7647 -1.0283 -0.5752
   91SOL     MW  364   2.171   0.691   0.504  0.2826 -0.2006  0.3822
   92SOL     OW  365   1.750   0.888   0.567 -0.3205  0.0343  0.3019
   92SOL    HW1  366   1.657   0.900   0.568  0.1209 -0.3254  0.9332
   92SOL    HW2  367   1.762   0.827   0.489  0.1551 -0.7879  0.2754
   92SOL     MW  368   1.739   0.882   0.557 -0.1995 -0.1217  0.3817
   93SOL     OW  369   1.102   0.181   0.424  1.2219 -0.1964 -0.3638
   93SOL    HW1  370   1.020   0.230   0.426  1.3631 -0.3890 -1.3081
   93SOL    HW2  371   1.150   0.218   0.350  2.3678  0.3877  0.7588
   93SOL     MW  372   1.097   0.193   0.415  1.3917 -0.1448 -0.3403
   94SOL     OW  373   1.853   1.373   1.626  0.8425  0.4713 -0.9854
   94SOL    HW1  374   1.868   1.369   1.532  0.5652  0.1511  2.6764
   94SOL    HW2  375   1.820   1.284   1.648  1.0876 -0.6354 -1.1977
   94SOL     MW  376   1.851   1.361   1.616  0.8383  0.2831 -0.5303
   95SOL     OW  377   0.723   1.583   0.949 -0.6432 -0.1879 -0.6036
   95SOL    HW1  378   0.768   1.553   1.028 -1.9796 -0.5317 -1.1761
   95SOL    HW2  379   0.645   1.530   0.928 -1.0714  1.2303 -0.4285
   95SOL     MW  380   0.718   1.572   0.957 -0.8760 -0.0461 -0.6560
   96SOL     OW  381   1.332   1.899   1.718  0.2799  0.2800  0.0615
   96SOL    HW1  382   1.256   1.905   1.770  2.1288 -0.2797 -0.0779
   96SOL    HW2  383   1.331   1.804   1.689  0.2572  1.9978  0.7377
   96SOL     MW  384   1.322   1.887   1.721  0.5208  0.4328  0.1324
   97SOL     OW  385   1.137   1.453   0.877 -0.6159  0.3321 -0.4378
   97SOL    HW1  386   1.174   1.530   0.923  1.7060 -0.8974  0.3071
   97SOL    HW2  387   1.055   1.491   0.850  2.1983 -1.8608  1.9588
   97SOL     MW  388   1.131   1.468   0.880  0.0618 -0.1195 -0.0233
   98SOL     OW  389   1.464   1.280   1.132 -0.4313  0.3835  0.7481
   98SOL    HW1  390   1.487   1.352   1.194 -0.0178 -0.5102  1.0725
   98SOL    HW2  391   1.460   1.327   1.046 -0.1830 -0.8384  3.0333
   98SOL     MW  392   1.467   1.296   1.129 -0.3440  0.1044  1.0924
   99SOL     OW  393   1.444   0.277   1.268  0.4675  0.4385 -0.6657
   99SOL    HW1  394   1.501   0.348   1.233  0.6918  1.6982  0.2208
   99SOL    HW2  395   1.418   0.318   1.345 -1.0356  1.1496 -3.6208
   99SOL     MW  396   1.448   0.292   1.274  0.2988  0.6985 -0.9386
  100SOL     OW  397   1.054   1.175   1.385  0.1705 -0.3329  0.2500
  100SOL    HW1  398   1.071   1.196   1.478 -1.6011 -0.0978  1.6346
  100SOL    HW2  399   1.044   1.078   1.395  1.9045 -1.4331  0.6155
  100SOL     MW  400   1.055   1.165   1.399  0.1656 -0.4470  0.4809
  101SOL     OW  401   0.469   1.218   0.334  0.0586  0.6025 -0.1716
  101SOL    HW1  402   0.400   1.161   0.301  0.0039 -1.6481 -1.6025
  101SOL    HW2  403   0.527   1.216   0.255  0.0381  3.7418  1.1942
  101SOL     MW  404   0.467   1.211   0.319  0.0487  0.7197 -0.1802
  102SOL     OW  405   2.891   0.621   0.986  0.0068 -0.1770  0.1762
  102SOL    HW1  406   2.932   0.705   0.993 -0.9556 -2.7879 -2.9218
  102SOL    HW2  407   2.855   0.591   1.074 -0.8341 -1.0948  0.5867
  102SOL     MW  408   2.892   0.628   0.999 -0.2311 -0.6426 -0.1784
  103SOL     OW  409   1.773   0.274   1.877  0.9803  0.5302  0.3060
  103SOL    HW1  410   1.780   0.181   1.845  1.5542  2.3081 -0.3429
  103SOL    HW2  411   1.795   0.269   1.969  1.1217 -0.1246 -3.7889
  103SOL     MW  412   1.777   0.261   1.885  1.0747  0.6784 -0.3199
  104SOL     OW  413   0.125   1.511   1.567 -0.6836 -0.1558  0.1631
  104SOL    HW1  414   0.175   1.456   1.619 -1.6574  0.4618  0.4545
  104SOL    HW2  415   0.033   1.493   1.593  0.2607 -0.4517  0.3089
  104SOL     MW  416   0.119   1.501   1.577 -0.6875 -0.1133  0.2208
  105SOL     OW  417   0.022   1.201   0.418 -0.5581  0.6074  0.0441
  105SOL    HW1  418   0.048   1.109   0.391  1.4206 -3.0412 -3.1440
  105SOL    HW2  419   0.107   1.244   0.439 -1.5729  1.1990  2.1470
  105SOL     MW  420   0.036   1.194   0.417 -0.4309  0.2041 -0.0991
  106SOL     OW  421   0.837   0.410   0.999 -0.6015  0.4962 -0.8071
  106SOL    HW1  422   0.760   0.461   0.968 -1.6362 -1.9802 -0.0261
  106SOL    HW2  423   0.882   0.359   0.929 -1.0450  0.5726 -1.9178
  106SOL     MW  424   0.832   0.410   0.986 -0.7965  0.1795 -0.8506
  107SOL     OW  425   0.807   2.138   2.916  0.1957  0.0480 -0.2075
  107SOL    HW1  426   0.726   2.119   2.872  1.6476 -2.1694  1.6305
  107SOL    HW2  427   0.808   2.093   3.003 -1.6399  1.2203 -0.4053
  107SOL     MW  428   0.797   2.130   2.922  0.1451 -0.0899  0.0089
  108SOL     OW  429   1.329   1.628   1.634  0.5754 -0.3246 -0.0369
  108SOL    HW1  430   1.243   1.607   1.575 -3.8768 -0.3164 -0.3107
  108SOL    HW2  431   1.410   1.607   1.580  1.8508 -2.5223 -0.6451
  108SOL     MW  432   1.328   1.622   1.619  0.1562 -0.6135 -0.1533
  109SOL     OW  433   2.015   0.769   0.266 -0.3811  0.5838 -0.0645
  109SOL    HW1  434   2.031   0.864   0.263  1.5285 -0.6390  0.9504
  109SOL    HW2  435   2.091   0.733   0.310  0.7035  0.6624 -1.7496
  109SOL     MW  436   2.027   0.777   0.272  0.0140  0.4328 -0.1530
  110SOL     OW  437   0.412   1.915   0.637  0.3383 -0.3422  0.1205
  110SOL    HW1  438   0.492   1.861   0.619 -2.0603  0.6056 -0.5469
  110SOL    HW2  439   0.422   1.985   0.574  1.5968 -2.5259  0.1680
  110SOL     MW  440   0.424   1.917   0.626  0.1879 -0.5053  0.0387
  111SOL     OW  441   0.760   0.872   1.448  0.0709 -0.2639 -0.4272
  111SOL    HW1  442   0.751   0.861   1.353  1.8287 -0.4101  0.8998
  111SOL    HW2  443   0.767   0.780   1.470 -0.8225 -0.6441  1.2224
  111SOL     MW  444   0.760   0.858   1.438  0.1850 -0.3334 -0.0345
  112SOL     OW  445   1.339   1.076   1.621  0.5997 -0.1798 -0.0715
  112SOL    HW1  446   1.278   1.148   1.618  2.1571 -0.3662 -0.2778
  112SOL    HW2  447   1.281   0.998   1.609  2.2203 -2.2149 -0.9163
  112SOL     MW  448   1.323   1.075   1.619  1.0190 -0.4729 -0.2102
  113SOL     OW  449   1.238   3.047   1.713 -0.1777 -0.0304 -0.6226
  113SOL    HW1  450   1.263   3.025   1.803  2.1136 -0.0827  0.9755
  113SOL    HW2  451   1.261   2.967   1.661 -1.3025  0.0165 -1.3869
  113SOL     MW  452   1.244   3.034   1.718 -0.0238 -0.0311 -0.5126
  114SOL     OW  453   0.251   2.879   1.882  0.4572 -0.0125  0.4326
  114SOL    HW1  454   0.299   2.935   1.937 -0.0484  0.2865  1.4044
  114SOL    HW2  455   0.186   2.946   1.842 -0.3934  3.7879 -1.0272
  114SOL     MW  456   0.249   2.895   1.884  0.2783  0.5284  0.3682
  115SOL     OW  457   0.467   0.842   1.137 -0.1297 -0.9822  0.6674
  115SOL    HW1  458   0.458   0.756   1.162  0.6241  1.8939 -1.3841
  115SOL    HW2  459   0.407   0.890   1.199  0.7036  0.9506 -0.3869
  115SOL     MW  460   0.458   0.837   1.149  0.0797 -0.3477  0.2576
  116SOL     OW  461   0.788   1.044   1.010  0.2828 -0.4695 -0.2425
  116SOL    HW1  462   0.820   1.055   0.921  1.3807  0.1196 -0.0648
  116SOL    HW2  463   0.830   1.114   1.066  2.0523  0.9062  1.0935
  116SOL     MW  464   0.797   1.055   1.005  0.6611 -0.2103 -0.0428
  117SOL     OW  465   1.126   1.208   0.779 -0.6300 -0.0963  0.5252
  117SOL    HW1  466   1.143   1.149   0.857  0.0808  1.0669 -1.9260
  117SOL    HW2  467   1.133   1.294   0.814 -1.1632 -0.0870 -2.5485
  117SOL     MW  468   1.129   1.212   0.794 -0.6066  0.0584 -0.2037
  118SOL     OW  469   3.060   2.955   1.652  0.3897 -0.3141  0.2143
  118SOL    HW1  470   3.104   3.036   1.671  0.1909 -1.3908 -0.7239
  118SOL    HW2  471   2.985   2.953   1.710  3.1233  1.3877 -0.1642
  118SOL     MW  472   3.056   2.966   1.662  0.7241 -0.2316  0.0406
  119SOL     OW  473   0.444   1.472   1.236  0.1633  0.4525  0.5424
  119SOL    HW1  474   0.482   1.536   1.169 -0.1876  0.0020  0.2047
  119SOL    HW2  475   0.351   1.463   1.218  1.8928 -0.5148 -1.4435
  119SOL     MW  476   0.437   1.479   1.224  0.3452  0.2654  0.2358
  120SOL     OW  477   0.263   0.728   1.017 -0.1267  0.7206  0.7367
  120SOL    HW1  478   0.265   0.680   1.096 -1.0666 -1.3971 -0.9291
  120SOL    HW2  479   0.341   0.786   1.028 -1.1279 -0.6467  2.6904
  120SOL     MW  480   0.273   0.729   1.029 -0.3828  0.2608  0.7747
  121SOL     OW  481   1.759   1.109   1.684 -1.0895 -0.7535  0.2107
  121SOL    HW1  482   1.663   1.130   1.705 -0.7458  0.4304  0.1741
  121SOL    HW2  483   1.758   1.035   1.629  0.0644  0.5121 -1.0323
  121SOL     MW  484   1.746   1.102   1.680 -0.8919 -0.4303  0.0419
  122SOL     OW  485   0.180   0.528   0.815  0.0972  0.0414 -0.0290
  122SOL    HW1  486   0.254   0.487   0.773  1.4135  0.6344  0.6741
  122SOL    HW2  487   0.222   0.590   0.876 -1.1861  0.1040 -3.3515
  122SOL     MW  488   0.196   0.531   0.817  0.1015  0.1279 -0.3746
  123SOL     OW  489   1.850   1.149   0.460 -0.0810 -0.5446 -0.3273
  123SOL    HW1  490   1.820   1.061   0.498 -1.0856  1.3853  0.5933
  123SOL    HW2  491   1.885   1.191   0.536  2.3256 -0.8761  0.0822
  123SOL     MW  492   1.850   1.143   0.475  0.1040 -0.3337 -0.1519
  124SOL     OW  493   0.603   0.548   0.934 -0.5578  0.0256  0.0804
  124SOL    HW1  494   0.538   0.520   0.870 -1.0947 -3.4180  0.3800
  124SOL    HW2  495   0.630   0.635   0.895  1.1865 -1.8293 -1.3355
  124SOL     MW  496   0.598   0.556   0.920 -0.3985 -0.6735 -0.0669
  125SOL     OW  497   0.718   1.786   1.746  0.1551  0.2042  0.1627
  125SOL    HW1  498   0.640   1.729   1.741  2.1598 -1.1216 -0.2614
  125SOL    HW2  499   0.687   1.867   1.713 -0.4536  1.5575 -1.3160
  125SOL     MW  500   0.703   1.789   1.741  0.3393  0.2078 -0.0884
  126SOL     OW  501   2.149   1.570   1.988  0.6253 -0.6421 -0.0341
  126SOL    HW1  502   2.213   1.644   1.985  0.3587 -1.7515 -2.2039
  126SOL    HW2  503   2.207   1.491   1.981  1.1911 -2.5525 -0.3036
  126SOL     MW  504   2.165   1.569   1.987  0.6647 -1.0405 -0.3559
  127SOL     OW  505   0.562   0.806   1.820 -0.2727  0.2478 -0.0781
  127SOL    HW1  506   0.654   0.782   1.846 -0.7030  1.2500  1.7989
  127SOL    HW2  507   0.538   0.873   1.888  0.5190 -0.1315  2.2550
  127SOL     MW  508   0.571   0.812   1.832 -0.2250  0.3300  0.4774
  128SOL     OW  509   1.724   0.708   2.917 -0.5907 -0.3095  0.0226
  128SOL    HW1  510   1.768   0.707   2.831  0.2013  1.8806  1.4172
  128SOL    HW2  511   1.711   0.801   2.939 -0.2739  0.0453 -0.4266
  128SOL     MW  512   1.728   0.720   2.908 -0.4444  0.0263  0.1473
  129SOL     OW  513   1.646   0.919   0.138  0.0140 -0.0345  0.1947
  129SOL    HW1  514   1.559   0.890   0.121  1.3372  1.7833  1.7221
  129SOL    HW2  515   1.683   0.869   0.210 -0.5525 -1.1248  1.4114
  129SOL     MW  516   1.640   0.908   0.145  0.1138  0.0615  0.5567
  130SOL     OW  517   0.808   1.373   0.280  0.1803  0.1089  0.1971
  130SOL    HW1  518   0.843   1.385   0.370 -0.4058  1.6857  1.3647
  130SOL    HW2  519   0.828   1.452   0.236 -0.9252 -1.9379 -1.0972
  130SOL     MW  520   0.816   1.385   0.286 -0.0429  0.0469  0.1804
  131SOL     OW  521   3.033   0.846   3.096 -0.2898 -0.2863 -0.0246
  131SOL    HW1  522   3.043   0.876   3.004 -0.6759  2.2163 -1.7085
  131SOL    HW2  523   3.115   0.805   3.130  3.3059 -0.8533  0.9672
  131SOL     MW  524   3.045   0.845   3.088  0.1337 -0.0309 -0.1159
  132SOL     OW  525   2.706   0.136   1.344 -0.0508 -0.1642 -0.5830
  132SOL    HW1  526   2.735   0.164   1.259 -0.8596 -1.0144 -0.2019
  132SOL    HW2  527   2.616   0.103   1.327  1.8094  0.0461  0.3719
  132SOL     MW  528   2.698   0.136   1.331  0.0880 -0.2487 -0.4068
  133SOL     OW  529   1.045   0.151   1.708 -0.2206 -0.4299  0.2543
  133SOL    HW1  530   1.096   0.066   1.711  1.7258  0.3312  1.7140
  133SOL    HW2  531   1.013   0.159   1.797 -0.9447 -0.3200  0.1459
  133SOL     MW  532   1.048   0.141   1.720 -0.0593 -0.3149  0.4326
  134SOL     OW  533   1.411   2.516   1.408 -0.1329 -0.0964  0.3577
  134SOL    HW1  534   1.334   2.570   1.391  2.7843 -0.0362  0.8379
  134SOL    HW2  535   1.430   2.538   1.499  0.0927 -0.5981  3.4545
  134SOL     MW  536   1.403   2.526   1.418  0.2818 -0.1546  0.8296
  135SOL     OW  537   3.015   0.959   2.853  0.5088  0.1583 -0.6267
  135SOL    HW1  538   3.091   1.025   2.872  0.5113 -0.3529  0.7042
  135SOL    HW2  539   2.938   1.014   2.861 -1.3951 -3.7111 -0.6406
  135SOL     MW  540   3.015   0.975   2.857  0.2579 -0.4197 -0.4529
  136SOL     OW  541   0.209   2.047   0.792 -0.2779  0.7387  0.6249
  136SOL    HW1  542   0.151   1.967   0.802  0.5889  0.0750 -2.5123
  136SOL    HW2  543   0.291   2.012   0.743  2.0168 -1.3925  0.2929
  136SOL     MW  544   0.212   2.032   0.787  0.1392  0.3699  0.1671
  137SOL     OW  545   0.692   2.038   0.505 -0.1651  0.3450  0.3020
  137SOL    HW1  546   0.682   2.044   0.603  1.7116  1.0173  1.4697
  137SOL    HW2  547   0.611   2.068   0.461  0.2732  0.7059  1.6814
  137SOL     MW  548   0.680   2.043   0.512  0.1404  0.4813  0.6380
  138SOL     OW  549   0.495   0.577   1.189  0.4334 -0.1234  0.2623
  138SOL    HW1  550   0.402   0.543   1.192  0.6446 -3.3385 -0.4508
  138SOL    HW2  551   0.522   0.550   1.102 -0.4126 -0.2871 -0.6191
  138SOL     MW  552   0.486   0.569   1.178  0.3496 -0.5692  0.0519
  139SOL     OW  553   2.872   0.541   1.232  0.5396 -0.5347  0.0832
  139SOL    HW1  554   2.946   0.503   1.281 -1.5215  0.7440 -0.6445
  139SOL    HW2  555   2.861   0.624   1.283 -0.6183 -0.8166  1.4344
  139SOL     MW  556   2.880   0.547   1.245  0.1149 -0.4032  0.1654
  140SOL     OW  557   0.970   0.506   2.018  0.0092 -0.2713 -0.1458
  140SOL    HW1  558   0.962   0.426   1.975  0.8035 -0.5510 -0.5878
  140SOL    HW2  559   0.959   0.479   2.116 -4.5106 -1.3767  1.2579
  140SOL     MW  560   0.967   0.492   2.026 -0.4824 -0.4541 -0.0189
  141SOL     OW  561   1.002   0.643   1.700 -0.0624  0.1737  0.1751
  141SOL    HW1  562   1.059   0.567   1.677 -0.4868 -1.2793 -0.2121
  141SOL    HW2  563   1.059   0.714   1.685 -0.9556  0.5628 -0.7118
  141SOL     MW  564   1.017   0.642   1.695 -0.2363  0.0333  0.0070
  142SOL     OW  565   0.865   1.138   0.745 -0.1756  0.7400 -0.4873
  142SOL    HW1  566   0.871   1.069   0.670 -1.0870 -0.0822 -0.2536
  142SOL    HW2  567   0.961   1.164   0.753  2.1719 -0.9751  1.3089
  142SOL     MW  568   0.879   1.132   0.736  0.0139  0.4052 -0.2195
  143SOL     OW  569   1.804   0.702   1.099  0.0244 -0.5791  0.2581
  143SOL    HW1  570   1.856   0.732   1.023  2.3609 -0.4609  0.9852
  143SOL    HW2  571   1.710   0.715   1.083 -0.8208  0.1299  1.3935
  143SOL     MW  572   1.798   0.708   1.087  0.2211 -0.4699  0.5038
  144SOL     OW  573   0.281   1.333   1.706  0.2722  0.6002  0.1899
  144SOL    HW1  574   0.359   1.296   1.661  1.5318  1.5103  1.3212
  144SOL    HW2  575   0.303   1.331   1.804  2.0935 -1.2315  0.4180
  144SOL     MW  576   0.294   1.327   1.713  0.6787  0.4786  0.3692
  145SOL     OW  577   0.236   0.506   1.192 -0.4909 -0.2003  0.7745
  145SOL    HW1  578   0.251   0.417   1.223 -0.8772 -0.7037 -2.6652
  145SOL    HW2  579   0.163   0.487   1.144  1.6168 -3.2304  1.8187
  145SOL     MW  580   0.229   0.492   1.190 -0.2638 -0.6665  0.4584
  146SOL     OW  581   0.844   1.988   1.407 -0.3325 -0.3927  0.0343
  146SOL    HW1  582   0.900   1.972   1.333  0.0280  0.1527 -1.5141
  146SOL    HW2  583   0.756   1.968   1.381 -0.3770  1.3192  1.0684
  146SOL     MW  584   0.840   1.983   1.393 -0.2908 -0.0949 -0.0336
  147SOL     OW  585   0.379   0.505   2.979  0.4597  0.3504 -0.3065
  147SOL    HW1  586   0.318   0.460   3.038 -2.0534  0.0455  0.5138
  147SOL    HW2  587   0.327   0.575   2.937  2.1797  1.0294  0.0691
  147SOL     MW  588   0.364   0.508   2.981  0.3551  0.3997 -0.1487
  148SOL     OW  589   0.077   0.955   1.300 -0.6251 -0.9174 -0.6539
  148SOL    HW1  590   0.172   0.975   1.303  3.8512 -0.8805  4.2687
  148SOL    HW2  591   0.027   1.039   1.320  3.2653  0.5197 -2.4346
  148SOL     MW  592   0.083   0.969   1.303  0.4788 -0.7229 -0.2394
  149SOL     OW  593   1.486   1.115   1.406  0.5926  0.7878  0.3972
  149SOL    HW1  594   1.422   1.100   1.479 -1.6382 -1.4731 -0.3668
  149SOL    HW2  595   1.497   1.207   1.396  1.9047  0.6082 -1.4956
  149SOL     MW  596   1.479   1.125   1.415  0.4714  0.4658  0.0467
  150SOL     OW  597   1.721   1.388   0.785  0.3014  0.1293  0.7012
  150SOL    HW1  598   1.764   1.303   0.783 -1.8303  0.5236 -0.3505
  150SOL    HW2  599   1.761   1.441   0.851 -0.7782  0.8136  1.9924
  150SOL     MW  600   1.732   1.384   0.793 -0.1223  0.2716  0.7328
  151SOL     OW  601   1.665   1.831   0.792  0.2528  0.0236 -0.1328
  151SOL    HW1  602   1.652   1.857   0.697 -1.3743  0.7402  0.2542
  151SOL    HW2  603   1.579   1.818   0.822  0.0933  2.4475  1.3713
  151SOL     MW  604   1.652   1.833   0.784  0.0171  0.4379  0.1167
  152SOL     OW  605   0.786   1.440   1.649 -0.3163 -0.3816  0.5307
  152SOL    HW1  606   0.842   1.442   1.727  1.5593  0.0469 -1.0769
  152SOL    HW2  607   0.756   1.354   1.637 -0.9090  2.3588  0.2514
  152SOL     MW  608   0.789   1.429   1.658 -0.1470  0.0365  0.2818
  153SOL     OW  609   2.586   1.218   0.785 -0.5520  0.2793 -0.5259
  153SOL    HW1  610   2.656   1.177   0.731  0.5276 -1.3107  1.0427
  153SOL    HW2  611   2.518   1.151   0.767  1.7975 -2.6386 -1.7694
  153SOL     MW  612   2.586   1.204   0.775 -0.0995 -0.3155 -0.4830
  154SOL     OW  613   0.145   1.749   1.714 -0.2876 -0.1202  0.0822
  154SOL    HW1  614   0.136   1.669   1.666 -0.7232 -1.5354 -2.5482
  154SOL    HW2  615   0.220   1.741   1.773 -1.3229  2.7256 -0.3966
  154SOL     MW  616   0.154   1.738   1.716 -0.4817  0.0686 -0.3280
  155SOL     OW  617   1.166   0.710   0.284  0.3258  1.1256  0.5768
  155SOL    HW1  618   1.139   0.666   0.364 -1.8267  0.7000  2.6208
  155SOL    HW2  619   1.160   0.806   0.305  1.3651  1.0247 -0.9569
  155SOL     MW  620   1.161   0.717   0.297  0.1789  1.0562  0.6441
  156SOL     OW  621   1.560   2.999   1.055  0.0480  0.1259 -0.2668
  156SOL    HW1  622   1.644   3.023   1.088  0.5829  1.8869 -0.2550
  156SOL    HW2  623   1.542   2.920   1.104  2.5582 -1.7287  0.0257
  156SOL     MW  624   1.569   2.992   1.066  0.4498  0.1136 -0.2267
  157SOL     OW  625   1.399   1.153   0.107 -0.2681 -0.1907  0.3091
  157SOL    HW1  626   1.419   1.059   0.132 -2.1760 -6.1223  1.1814
  157SOL    HW2  627   1.483   1.205   0.124  1.4520  0.3928 -2.0379
  157SOL     MW  628   1.413   1.147   0.112 -0.2929 -0.8963  0.1145
  158SOL     OW  629   0.386   1.638   2.277 -0.3730  0.6805  0.4671
  158SOL    HW1  630   0.394   1.714   2.216  2.3875  1.3091  1.1935
  158SOL    HW2  631   0.338   1.677   2.348 -0.8616  0.4093 -1.8271
  158SOL     MW  632   0.381   1.653   2.278 -0.0732  0.7276  0.2602
  159SOL     OW  633   1.252   1.710   0.480 -0.7665 -0.0550  0.0816
  159SOL    HW1  634   1.214   1.664   0.405  0.2420 -0.7793  0.6020
  159SOL    HW2  635   1.176   1.744   0.529  1.6307  0.9977 -0.6786
  159SOL     MW  636   1.237   1.709   0.477 -0.3171 -0.0117  0.0500
  160SOL     OW  637   0.501   1.196   1.563 -0.5441  1.2250 -0.1739
  160SOL    HW1  638   0.453   1.111   1.573 -0.2410  0.8018  1.0309
  160SOL    HW2  639   0.589   1.166   1.584  0.9909  0.3590 -1.5317
  160SOL     MW  640   0.506   1.181   1.567 -0.3016  1.0549 -0.1941
  161SOL     OW  641   0.471   2.230   2.528 -0.2501 -0.3484  0.4656
  161SOL    HW1  642   0.374   2.245   2.524  2.0755  0.0949  0.8345
  161SOL    HW2  643   0.485   2.159   2.469 -0.9859  0.2877 -2.0987
  161SOL     MW  644   0.460   2.222   2.519 -0.0403 -0.2060  0.1760
  162SOL     OW  645   1.074   1.775   1.849 -0.1978 -0.0962 -0.3453
  162SOL    HW1  646   1.068   1.852   1.911  0.3678  0.7425  2.3055
  162SOL    HW2  647   0.990   1.741   1.884  0.0281 -0.0811  0.4928
  162SOL     MW  648   1.062   1.781   1.862 -0.0934  0.0164  0.1150
  163SOL     OW  649   2.054   3.051   0.897 -0.5051  0.8218  0.0465
  163SOL    HW1  650   2.057   3.123   0.839 -3.0840 -0.4157  1.9785
  163SOL    HW2  651   2.071   2.972   0.842 -1.1176 -1.0974 -1.9108
  163SOL     MW  652   2.056   3.050   0.882 -0.9261  0.4053  0.0432
  164SOL     OW  653   0.304   0.204   0.811 -0.0119 -0.4547 -0.2350
  164SOL    HW1  654   0.206   0.219   0.836  0.4656  1.4015  1.2342
  164SOL    HW2  655   0.303   0.141   0.741  0.7224  1.7509  0.5572
  164SOL     MW  656   0.291   0.198   0.805  0.1480  0.0812  0.0634
  165SOL     OW  657   1.273   1.309   0.335 -0.8589  0.5666 -0.3803
  165SOL    HW1  658   1.247   1.245   0.411  1.9737 -1.3180  1.5718
  165SOL    HW2  659   1.301   1.253   0.262 -1.9630 -0.4048  0.2115
  165SOL     MW  660   1.273   1.293   0.335 -0.6308  0.1897 -0.0447
  166SOL     OW  661   0.540   1.183   1.014 -0.0168 -0.4668  0.5675
  166SOL    HW1  662   0.485   1.182   1.087 -1.3284 -2.6641 -0.7734
  166SOL    HW2  663   0.615   1.128   1.042 -0.8718 -3.1251  2.6411
  166SOL     MW  664   0.542   1.176   1.027 -0.3027 -1.1074  0.6641
  167SOL     OW  665   0.817   1.103   0.250 -0.2524  0.0731  0.0099
  167SOL    HW1  666   0.787   1.196   0.267  2.1188 -2.0361  0.2644
  167SOL    HW2  667   0.891   1.101   0.182  0.7576  0.7018  0.6320
  167SOL     MW  668   0.823   1.115   0.243  0.1937 -0.1222  0.1256
  168SOL     OW  669   1.727   1.649   3.033 -0.4980  0.1845  0.4412
  168SOL    HW1  670   1.649   1.702   3.019  3.6619 -1.3093  0.4426
  168SOL    HW2  671   1.714   1.551   3.016  4.0823 -0.8904  1.0435
  168SOL     MW  672   1.715   1.643   3.029  0.6552 -0.1544  0.5208
  169SOL     OW  673   0.356   0.991   1.320 -0.0411 -0.0432 -0.6449
  169SOL    HW1  674   0.393   0.959   1.404 -0.3164  0.8639 -0.4869
  169SOL    HW2  675   0.410   1.065   1.293 -2.3103  0.5205 -2.2755
  169SOL     MW  676   0.368   0.997   1.327 -0.3768  0.1509 -0.8392
  170SOL     OW  677   1.108   1.551   1.502  0.4228 -0.1741 -0.1699
  170SOL    HW1  678   1.052   1.627   1.505  0.3030  2.6866  1.1827
  170SOL    HW2  679   1.087   1.515   1.412 -2.3073 -2.3972 -1.5199
  170SOL     MW  680   1.098   1.556   1.490  0.0468 -0.0900 -0.1696
  171SOL     OW  681   0.557   1.405   0.569 -0.3537  0.5057 -0.8004
  171SOL    HW1  682   0.534   1.444   0.657  0.9224  2.8276 -1.1068
  171SOL    HW2  683   0.543   1.310   0.565  1.4263  1.8195 -0.6611
  171SOL     MW  684   0.552   1.398   0.580  0.0495  0.9854 -0.8225
  172SOL     OW  685   0.863   0.303   1.268  0.0102 -0.3140  0.4740
  172SOL    HW1  686   0.796   0.330   1.207 -0.6932 -1.5781 -1.3120
  172SOL    HW2  687   0.839   0.228   1.325  2.2858  1.7613 -1.4262
  172SOL     MW  688   0.851   0.296   1.268  0.2176 -0.2070 -0.0123
  173SOL     OW  689   0.490   1.780   0.243  0.4849  0.3570 -0.0871
  173SOL    HW1  690   0.488   1.682   0.239 -0.5987 -0.7924  1.9141
  173SOL    HW2  691   0.485   1.799   0.340 -0.4450 -0.4355  0.8942
  173SOL     MW  692   0.489   1.770   0.255  0.2193  0.1007  0.3064
  174SOL     OW  693   1.852   0.892   1.500  0.3940 -0.2528  0.6543
  174SOL    HW1  694   1.808   0.808   1.494  0.4568  0.1424 -0.1920
  174SOL    HW2  695   1.853   0.917   1.408  2.9522 -1.2962  0.3896
  174SOL     MW  696   1.847   0.884   1.487  0.7398 -0.3383  0.5077
  175SOL     OW  697   0.478   1.491   0.241  0.3287 -0.7075  0.8813
  175SOL    HW1  698   0.414   1.431   0.201  2.1681 -0.5860  0.7885
  175SOL    HW2  699   0.515   1.443   0.312 -1.9020  1.7164 -1.3224
  175SOL     MW  700   0.474   1.477   0.245  0.2771 -0.3716  0.5783
  176SOL     OW  701   0.175   1.472   1.200 -0.9735  0.1261  0.0814
  176SOL    HW1  702   0.165   1.418   1.128  1.8656 -0.3877 -2.9175
  176SOL    HW2  703   0.101   1.467   1.260 -0.8065  0.4014  0.0124
  176SOL     MW  704   0.164   1.464   1.198 -0.5769  0.0946 -0.3234
  177SOL     OW  705   0.568   0.356   1.344 -0.2757  0.5660  0.5260
  177SOL    HW1  706   0.572   0.445   1.309 -1.4050 -3.2353  0.0591
  177SOL    HW2  707   0.567   0.366   1.443  0.6218 -0.2706  1.5475
  177SOL     MW  708   0.569   0.369   1.352 -0.3063 -0.0459  0.5992
  178SOL     OW  709   3.072   0.524   2.975  0.2689 -0.0367 -0.1905
  178SOL    HW1  710   3.003   0.538   3.040  4.4393 -1.0582  0.9120
  178SOL    HW2  711   3.029   0.479   2.897  0.3985  0.4176 -3.5851
  178SOL     MW  712   3.057   0.520   2.973  0.8363 -0.1115 -0.4930
  179SOL     OW  713   1.566   1.425   1.348 -0.5397  0.3162  0.5735
  179SOL    HW1  714   1.532   1.436   1.431  0.9931  2.5679 -1.0661
  179SOL    HW2  715   1.660   1.418   1.364 -2.0678  0.2833  3.9017
  179SOL     MW  716   1.574   1.425   1.361 -0.5391  0.6090  0.7963
  180SOL     OW  717   2.990   0.217   0.469  0.3242  0.2905  0.7284
  180SOL    HW1  718   2.939   0.236   0.387  3.8069 -1.9962 -0.0883
  180SOL    HW2  719   3.051   0.295   0.468 -1.9604 -0.4437 -2.5286
  180SOL     MW  720   2.991   0.230   0.458  0.4822 -0.1081  0.1909
  181SOL     OW  721   1.120   1.347   3.061  0.2650  0.1091  0.1293
  181SOL    HW1  722   1.183   1.411   3.094  0.3605  1.8553  0.4942
  181SOL    HW2  723   1.165   1.287   3.005 -0.8022 -0.4342 -1.5326
  181SOL     MW  724   1.134   1.347   3.058  0.1368  0.2678 -0.0419
  182SOL     OW  725   0.430   0.915   1.579 -0.7170  0.4084  0.3418
  182SOL    HW1  726   0.338   0.899   1.602 -0.3963  2.3884  1.0609
  182SOL    HW2  727   0.467   0.862   1.649  2.2449  1.0362 -2.9245
  182SOL     MW  728   0.423   0.906   1.591 -0.2839  0.7525  0.0057
  183SOL     OW  729   1.594   1.731   1.228 -0.3603 -0.0721  0.1434
  183SOL    HW1  730   1.689   1.720   1.250  2.1756  2.9298 -2.9897
  183SOL    HW2  731   1.544   1.675   1.285 -1.0349  0.0345  1.0419
  183SOL     MW  732   1.600   1.722   1.239 -0.1147  0.3380 -0.1514
  184SOL     OW  733   0.812   0.730   1.918  0.2741 -0.1623 -0.8231
  184SOL    HW1  734   0.870   0.748   1.845 -2.1479  2.0507  1.0617
  184SOL    HW2  735   0.860   0.661   1.960  0.2750  0.4861 -0.4775
  184SOL     MW  736   0.826   0.723   1.914 -0.0453  0.2153 -0.5288
  185SOL     OW  737   1.115   0.965   1.922 -0.0321 -0.6946 -0.0179
  185SOL    HW1  738   1.129   0.877   1.965 -0.1542 -1.1967  1.6226
  185SOL    HW2  739   1.136   1.029   1.983 -3.6513 -0.7484 -0.9287
  185SOL     MW  740   1.120   0.962   1.936 -0.5258 -0.7680  0.0784
  186SOL     OW  741   0.370   1.678   1.457  0.3395  0.6826  0.2266
  186SOL    HW1  742   0.414   1.622   1.389 -1.5915 -0.6686 -1.8487
  186SOL    HW2  743   0.287   1.626   1.466  2.6804  1.2647 -0.3481
  186SOL     MW  744   0.365   1.664   1.449  0.3936  0.5812 -0.1230
  187SOL     OW  745   1.511   0.721   1.352 -0.0554 -0.6429 -0.0436
  187SOL    HW1  746   1.560   0.696   1.429  0.3440  1.1776  0.3055
  187SOL    HW2  747   1.414   0.721   1.360  1.2459 -3.1407  0.7078
  187SOL     MW  748   1.504   0.718   1.363  0.1690 -0.7322  0.1016
  188SOL     OW  749   1.906   1.164   0.832  0.3283  0.0273 -0.4577
  188SOL    HW1  750   1.907   1.176   0.923  1.8542 -1.2417 -1.7565
  188SOL    HW2  751   1.945   1.078   0.819 -1.2270 -1.6576 -2.4196
  188SOL     MW  752   1.911   1.154   0.842  0.3244 -0.3624 -0.8879
  189SOL     OW  753   0.695   0.806   0.846  0.2424 -0.5968 -0.2500
  189SOL    HW1  754   0.624   0.877   0.839 -2.4223  1.7942  1.5210
  189SOL    HW2  755   0.767   0.825   0.909 -0.2738  3.5666  1.5882
  189SOL     MW  756   0.695   0.818   0.853 -0.1773  0.2680  0.2262
  190SOL     OW  757   1.859   0.251   2.192 -0.3402  1.1350 -0.0187
  190SOL    HW1  758   1.904   0.224   2.272 -1.5170 -2.9459 -0.0223
  190SOL    HW2  759   1.928   0.299   2.152 -1.0561 -1.6305  1.2144
  190SOL     MW  760   1.874   0.254   2.197 -0.5899  0.2317  0.1435
  191SOL     OW  761   1.550   0.941   1.180 -0.4465  0.1664  0.0618
  191SOL    HW1  762   1.530   1.018   1.229  0.9116 -0.0194 -2.3601
  191SOL    HW2  763   1.523   0.873   1.237  1.9089  0.7824 -0.7138
  191SOL     MW  764   1.544   0.942   1.194  0.0435  0.2231 -0.3601
  192SOL     OW  765   0.564   2.120   2.776 -0.2805  0.0132  0.2350
  192SOL    HW1  766   0.521   2.155   2.696 -2.1412 -1.2606  0.1267
  192SOL    HW2  767   0.563   2.021   2.767  3.1676  0.0673  0.7164
  192SOL     MW  768   0.558   2.111   2.764 -0.0711 -0.1477  0.2843
  193SOL     OW  769   0.906   1.594   0.757 -0.1753  0.1832 -0.0875
  193SOL    HW1  770   0.831   1.582   0.817  0.8307  0.7271 -3.1396
  193SOL    HW2  771   0.877   1.520   0.690 -0.1474 -0.6175  0.2322
  193SOL     MW  772   0.892   1.582   0.756 -0.0389  0.1493 -0.4480
  194SOL     OW  773   0.490   1.446   0.895 -0.1583 -0.2451 -0.3199
  194SOL    HW1  774   0.500   1.353   0.915  2.1669 -2.8481 -1.9650
  194SOL    HW2  775   0.397   1.452   0.874  0.5551  2.6904  2.2955
  194SOL     MW  776   0.479   1.435   0.895  0.2426 -0.2013 -0.1919
  195SOL     OW  777   1.292   1.146   2.942 -0.4917 -0.5340  0.0873
  195SOL    HW1  778   1.325   1.151   3.034  0.1551 -1.7982  0.2292
  195SOL    HW2  779   1.252   1.063   2.951  3.3036  0.9819 -1.1494
  195SOL     MW  780   1.291   1.135   2.955  0.0944 -0.5008 -0.0571
  196SOL     OW  781   2.201   1.004   0.525 -0.5135  0.5283 -0.2786
  196SOL    HW1  782   2.166   1.001   0.442  2.1526  0.3605 -0.0848
  196SOL    HW2  783   2.192   1.098   0.551  1.0783 -0.3900  0.6024
  196SOL     MW  784   2.195   1.016   0.518  0.0483  0.3850 -0.1368
  197SOL     OW  785   0.627   1.352   2.166 -1.0407  0.0565  0.6439
  197SOL    HW1  786   0.671   1.264   2.138  0.8867 -2.7045 -1.2948
  197SOL    HW2  787   0.634   1.410   2.089  0.8780 -0.1871 -1.2821
  197SOL     MW  788   0.634   1.348   2.152 -0.5333 -0.3399  0.1340
  198SOL     OW  789   2.934   1.401   1.012  0.2846  0.0307 -0.6006
  198SOL    HW1  790   2.891   1.478   0.971 -1.0686  1.8022 -0.2005
  198SOL    HW2  791   2.859   1.348   1.031  1.6051  0.8636  0.3695
  198SOL     MW  792   2.918   1.404   1.009  0.2803  0.3743 -0.4198
  199SOL     OW  793   0.641   1.379   1.875  1.3576 -0.1292  0.3749
  199SOL    HW1  794   0.549   1.359   1.904  1.2209 -2.0756  0.0335
  199SOL    HW2  795   0.641   1.416   1.784  3.6575 -1.8240 -0.5356
  199SOL     MW  796   0.629   1.381   1.867  1.6430 -0.6096  0.2097
  200SOL     OW  797   1.871   2.924   1.378  0.1152 -0.0490  0.0079
  200SOL    HW1  798   1.911   2.952   1.292  1.7574 -2.1979 -0.3371
  200SOL    HW2  799   1.780   2.966   1.376 -2.4348  0.7353  1.3849
  200SOL     MW  800   1.864   2.933   1.366 -0.0046 -0.2291  0.1440
  201SOL     OW  801   0.979   0.354   0.760 -0.1103 -0.8196 -0.8560
  201SOL    HW1  802   0.979   0.263   0.731  2.1987  1.8208 -0.3883
  201SOL    HW2  803   1.070   0.377   0.792  2.2680  1.5053  1.6318
  201SOL     MW  804   0.991   0.345   0.761  0.5082 -0.1645 -0.4661
  202SOL     OW  805   1.480   1.659   0.925 -0.5431  1.3477  0.6281
  202SOL    HW1  806   1.496   1.574   0.893  1.0842  1.2419  0.3746
  202SOL    HW2  807   1.519   1.658   1.011 -2.0164  2.4877  0.8931
  202SOL     MW  808   1.487   1.648   0.932 -0.5228  1.4842  0.6296
  203SOL     OW  809   3.026   0.447   1.450 -0.0474 -0.3449  0.5672
  203SOL    HW1  810   3.071   0.363   1.452 -1.9232  0.0980 -1.9546
  203SOL    HW2  811   3.092   0.507   1.486  0.1227 -0.1950  3.1228
  203SOL     MW  812   3.041   0.444   1.455 -0.2725 -0.2667  0.5717
  204SOL     OW  813   1.028   1.799   0.612 -0.0111  0.1604  0.1168
  204SOL    HW1  814   1.015   1.718   0.664 -0.5994 -0.8013  1.8166
  204SOL    HW2  815   0.954   1.797   0.546 -0.4093  1.2221 -0.0029
  204SOL     MW  816   1.017   1.788   0.610 -0.1413  0.1736  0.3253
  205SOL     OW  817   1.414   3.093   1.304 -0.0142 -0.0940  0.3378
  205SOL    HW1  818   1.453   3.083   1.215  1.3148  0.3327  0.4779
  205SOL    HW2  819   1.351   3.164   1.298  0.0469 -0.5783 -0.5677
  205SOL     MW  820   1.411   3.101   1.291  0.1692 -0.1016  0.2368
  206SOL     OW  821   0.505   3.097   1.414  0.0489 -0.4094 -0.4044
  206SOL    HW1  822   0.461   3.094   1.328  1.2815  0.0767  0.5444
  206SOL    HW2  823   0.575   3.032   1.409  2.0535  1.2129 -2.8136
  206SOL     MW  824   0.508   3.088   1.402  0.4760 -0.1312 -0.5971
  207SOL     OW  825   0.906   1.630   0.228 -0.1193  0.2171  0.1066
  207SOL    HW1  826   0.915   1.712   0.179 -1.5660  0.8069 -4.6272
  207SOL    HW2  827   0.999   1.605   0.247  0.3528  3.3168  1.1994
  207SOL     MW  828   0.920   1.637   0.224 -0.2479  0.7039 -0.3738
  208SOL     OW  829   0.695   1.699   1.361 -0.9574  0.3049  0.6154
  208SOL    HW1  830   0.757   1.728   1.432  0.1009  0.4183 -0.1867
  208SOL    HW2  831   0.755   1.641   1.321 -4.7849  2.3898 -0.8978
  208SOL     MW  832   0.711   1.695   1.365 -1.3227  0.5950  0.3099
  209SOL     OW  833   1.547   0.535   2.813 -0.2350  0.4047 -0.8928
  209SOL    HW1  834   1.585   0.614   2.855 -3.6861  0.5879 -1.6483
  209SOL    HW2  835   1.624   0.478   2.826 -0.1879  1.2099  1.5729
  209SOL     MW  836   1.562   0.538   2.820 -0.6841  0.5352 -0.6671
  210SOL     OW  837   1.463   1.377   0.870 -0.0279  0.4742  0.7949
  210SOL    HW1  838   1.556   1.361   0.836 -0.4007  3.2081  1.4671
  210SOL    HW2  839   1.413   1.404   0.788 -1.8176  1.6284  0.8464
  210SOL     MW  840   1.468   1.378   0.855 -0.3132  0.9872  0.8904
  211SOL     OW  841   1.713   0.274   1.012 -0.4965  0.1934  0.2177
  211SOL    HW1  842   1.694   0.307   0.923  0.5138 -0.2263 -1.5803
  211SOL    HW2  843   1.804   0.293   1.028  0.6214 -0.0471 -1.4053
  211SOL     MW  844   1.723   0.281   1.002 -0.2157  0.1063 -0.2337
  212SOL     OW  845   0.300   1.053   0.173  0.6073 -0.2847 -0.2329
  212SOL    HW1  846   0.237   0.994   0.209 -1.6485  1.1941 -0.2863
  212SOL    HW2  847   0.353   0.994   0.118  2.7516  0.7335 -0.7364
  212SOL     MW  848   0.299   1.038   0.171  0.5926  0.0447 -0.3063
  213SOL     OW  849   0.487   1.743   2.987 -0.3800  0.1099 -0.5226
  213SOL    HW1  850   0.514   1.819   3.040 -1.1775  0.5577  0.4100
  213SOL    HW2  851   0.543   1.746   2.911 -1.5411  0.6689  1.3473
  213SOL     MW  852   0.498   1.753   2.984 -0.6384  0.2427 -0.1528
  214SOL     OW  853   0.641   0.366   2.157  0.0925  0.0599 -0.5462
  214SOL    HW1  854   0.572   0.419   2.195  1.2701 -1.0401 -1.4243
  214SOL    HW2  855   0.624   0.345   2.066 -5.3919 -0.7095 -2.0727
  214SOL     MW  856   0.630   0.370   2.150 -0.4757 -0.1868 -0.8635
  215SOL     OW  857   0.487   0.668   2.635 -0.1738 -0.5774  0.2103
  215SOL    HW1  858   0.464   0.683   2.545 -2.6557 -0.0943  1.5803
  215SOL    HW2  859   0.408   0.637   2.677 -1.0519 -0.4338 -3.0601
  215SOL     MW  860   0.474   0.666   2.628 -0.6171 -0.4947 -0.0404
  216SOL     OW  861   2.991   3.026   2.747 -0.0436  0.9003 -0.0966
  216SOL    HW1  862   2.908   3.044   2.785 -1.6346  0.7965  0.1875
  216SOL    HW2  863   3.020   3.102   2.706 -0.3710 -0.2578  0.8410
  216SOL     MW  864   2.984   3.038   2.747 -0.2967  0.7338  0.0646
  217SOL     OW  865   1.045   1.125   0.103  0.0500 -0.1918 -0.5851
  217SOL    HW1  866   1.084   1.054   0.054  0.3913  0.1828 -1.1632
  217SOL    HW2  867   1.079   1.214   0.075 -1.9034  2.5252 -0.3458
  217SOL     MW  868   1.054   1.128   0.093 -0.1627  0.2161 -0.6298
  218SOL     OW  869   0.886   1.347   2.658 -0.4999  0.7792 -0.0275
  218SOL    HW1  870   0.880   1.278   2.729 -2.4598  0.1533  0.8699
  218SOL    HW2  871   0.979   1.359   2.637 -0.5809 -0.7098 -0.2618
  218SOL     MW  872   0.897   1.340   2.665 -0.7692  0.5002  0.0600
  219SOL     OW  873   1.132   0.343   2.605 -0.0951 -0.1174  0.2799
  219SOL    HW1  874   1.203   0.406   2.643  1.0760 -0.1594  0.5263
  219SOL    HW2  875   1.064   0.403   2.588  2.9636 -0.7180 -2.6761
  219SOL     MW  876   1.132   0.359   2.608  0.4630 -0.2022 -0.0776
  220SOL     OW  877   1.673   0.460   2.222 -0.4570 -0.2397  0.4170
  220SOL    HW1  878   1.613   0.496   2.158  2.0908 -0.1419  0.3695
  220SOL    HW2  879   1.710   0.379   2.186 -0.9423 -0.5477  0.4909
  220SOL     MW  880   1.670   0.454   2.208 -0.1849 -0.2674  0.4205
  221SOL     OW  881   0.340   1.322   2.918 -0.1286 -0.6520  0.1941
  221SOL    HW1  882   0.408   1.261   2.897  0.1526 -0.2735 -1.9250
  221SOL    HW2  883   0.351   1.394   2.855  0.4981  1.6426 -0.4065
  221SOL     MW  884   0.350   1.324   2.907 -0.0088 -0.2993 -0.1647
  222SOL     OW  885   0.469   0.954   2.627  0.1432 -0.5940 -0.0863
  222SOL    HW1  886   0.392   0.949   2.571 -0.3871  3.8572  1.3349
  222SOL    HW2  887   0.484   0.864   2.641  1.8489  1.8416 -1.5414
  222SOL     MW  888   0.461   0.942   2.622  0.2983  0.3146 -0.0908
  223SOL     OW  889   0.094   2.002   2.523  0.0446 -0.1820 -0.1070
  223SOL    HW1  890   0.069   1.981   2.615  3.4405 -0.0906 -0.2909
  223SOL    HW2  891   0.102   2.098   2.513  1.6835 -3.0061  0.5688
  223SOL     MW  892   0.092   2.012   2.534  0.7089 -0.5426 -0.0421
  224SOL     OW  893   1.542   0.743   2.518 -0.7152  0.6588 -0.1726
  224SOL    HW1  894   1.557   0.736   2.614  1.8604  0.5940  0.7697
  224SOL    HW2  895   1.534   0.838   2.498  2.7760  0.5312  1.3689
  224SOL     MW  896   1.543   0.755   2.528  0.0853  0.6334  0.1551
  225SOL     OW  897   2.914   1.467   2.283  0.0182 -0.5573 -0.6891
  225SOL    HW1  898   2.956   1.528   2.226  0.8065 -2.0120 -1.7775
  225SOL    HW2  899   2.863   1.525   2.343 -1.3541  1.6203 -1.4966
  225SOL     MW  900   2.913   1.482   2.283 -0.0589 -0.4619 -0.9392
  226SOL     OW  901   0.412   1.512   2.739  0.1637 -0.0277 -0.8420
  226SOL    HW1  902   0.507   1.492   2.711  0.2079 -3.0777 -1.5362
  226SOL    HW2  903   0.406   1.604   2.715 -2.2828 -1.0572 -0.6201
  226SOL     MW  904   0.424   1.521   2.732 -0.1533 -0.5660 -0.9043
  227SOL     OW  905   0.543   1.128   2.834 -0.0786  0.0967  0.0507
  227SOL    HW1  906   0.636   1.142   2.815 -0.1411 -4.7748  0.7250
  227SOL    HW2  907   0.514   1.097   2.751  2.8824  1.4496 -0.8800
  227SOL     MW  908   0.551   1.126   2.821  0.3038 -0.3675  0.0169
  228SOL     OW  909   0.752   1.126   2.070  0.3674 -0.3429 -0.0342
  228SOL    HW1  910   0.760   1.164   1.984 -0.2387  0.7967  0.3219
  228SOL    HW2  911   0.844   1.117   2.108  0.8051  3.7529  1.9328
  228SOL     MW  912   0.765   1.130   2.064  0.3452  0.3479  0.2723
  229SOL     OW  913   0.147   0.669   0.045  0.3947  0.1049 -0.5844
  229SOL    HW1  914   0.115   0.637  -0.040 -0.7003  0.0787 -0.7359
  229SOL    HW2  915   0.165   0.588   0.088 -1.3763  1.3718 -0.9418
  229SOL     MW  916   0.145   0.654   0.040  0.0166  0.2686 -0.6516
  230SOL     OW  917   1.789   1.338   2.014  0.4285  0.0442  0.1583
  230SOL    HW1  918   1.740   1.316   2.089  1.1794  2.0653 -0.8188
  230SOL    HW2  919   1.827   1.251   2.003  0.7639  0.8192  0.9234
  230SOL     MW  920   1.787   1.323   2.022  0.5718  0.4131  0.1303
  231SOL     OW  921   2.749   1.264   2.185 -0.4761  0.3898  0.1092
  231SOL    HW1  922   2.803   1.335   2.214 -0.5649  0.9671  3.4939
  231SOL    HW2  923   2.703   1.281   2.101 -0.1378 -3.8371  0.3407
  231SOL     MW  924   2.750   1.275   2.178 -0.4432 -0.0917  0.5863
  232SOL     OW  925   2.248   0.844   2.016  0.1781 -0.4215 -1.0297
  232SOL    HW1  926   2.174   0.850   1.959  0.1984  0.9093 -0.6416
  232SOL    HW2  927   2.196   0.836   2.096 -1.8566 -0.1585  1.2695
  232SOL     MW  928   2.231   0.844   2.019 -0.0877 -0.2112 -0.6751
  233SOL     OW  929   2.061   0.401   2.055 -0.2362  0.0099  0.4078
  233SOL    HW1  930   2.127   0.346   2.009  2.3007  1.4929 -3.6961
  233SOL    HW2  931   2.105   0.467   2.111 -0.5959 -0.3980 -0.6287
  233SOL     MW  932   2.076   0.403   2.057  0.0510  0.1517 -0.2704
  234SOL     OW  933   0.195   1.050   2.545  0.4784  0.3416  0.8295
  234SOL    HW1  934   0.108   1.059   2.500  1.5740  0.4798  0.6246
  234SOL    HW2  935   0.244   1.135   2.536  0.2833  0.6990 -0.6959
  234SOL     MW  936   0.190   1.062   2.538  0.5972  0.4070  0.6012
  235SOL     OW  937   1.117   3.044   2.794 -0.9513  0.5057 -0.3407
  235SOL    HW1  938   1.119   3.011   2.881 -0.1093  0.0477 -1.0959
  235SOL    HW2  939   1.098   3.139   2.815  1.8903 -1.4361  2.7932
  235SOL     MW  940   1.114   3.053   2.808 -0.4653  0.1891 -0.0269
  236SOL     OW  941   2.937   0.593   0.101  0.5243  0.3602  0.9194
  236SOL    HW1  942   2.855   0.644   0.118 -0.7289  0.0524  0.9572
  236SOL    HW2  943   3.002   0.663   0.087  2.3113  1.7178 -0.3400
  236SOL     MW  944   2.935   0.609   0.101  0.5948  0.4987  0.7583
  237SOL     OW  945   1.990   1.142   2.216 -0.3207 -0.0963 -0.6316
  237SOL    HW1  946   1.921   1.115   2.154 -1.6552  0.1053 -1.9178
  237SOL    HW2  947   2.046   1.066   2.239 -1.1113  2.5068 -0.8849
  237SOL     MW  948   1.988   1.128   2.210 -0.6010  0.2737 -0.8347
  238SOL     OW  949   1.078   1.768   2.940  0.0258 -0.1585 -0.4422
  238SOL    HW1  950   1.008   1.709   2.968 -0.4288  1.7991  1.1178
  238SOL    HW2  951   1.158   1.716   2.938 -0.2315  0.0293  0.6026
  238SOL     MW  952   1.080   1.753   2.944 -0.0681  0.1246 -0.0985
  239SOL     OW  953   1.236   1.416   2.375 -0.3284 -0.3821 -0.4199
  239SOL    HW1  954   1.179   1.449   2.449 -1.0897 -3.8439  1.4204
  239SOL    HW2  955   1.240   1.323   2.393 -1.2263 -3.1599 -1.6223
  239SOL     MW  956   1.229   1.408   2.387 -0.5473 -1.2053 -0.3358
  240SOL     OW  957   0.631   0.924   2.307  0.2492  0.0170 -0.1694
  240SOL    HW1  958   0.692   0.955   2.380  1.3728  3.7893  1.8627
  240SOL    HW2  959   0.677   0.857   2.258  0.3714  0.4153  0.5308
  240SOL     MW  960   0.646   0.920   2.310  0.4136  0.5673  0.1911
  241SOL     OW  961   0.679   0.408   0.017 -0.4123 -0.2225  0.3100
  241SOL    HW1  962   0.688   0.465   0.099  1.7835  0.8237  0.7801
  241SOL    HW2  963   0.609   0.458  -0.027  0.2226  3.9869 -3.2219
  241SOL     MW  964   0.671   0.422   0.022 -0.0388  0.4709 -0.0940
  242SOL     OW  965   1.490   1.717   2.301  0.1477  0.1919  0.0621
  242SOL    HW1  966   1.432   1.793   2.294  0.7731  1.0480 -2.7696
  242SOL    HW2  967   1.452   1.638   2.258  1.1903 -3.5265  1.5163
  242SOL     MW  968   1.477   1.716   2.294  0.3678 -0.1857 -0.1197
  243SOL     OW  969   0.976   0.179   2.420  0.2580  0.4996 -0.8226
  243SOL    HW1  970   1.057   0.161   2.369  3.3811  3.8232  1.1575
  243SOL    HW2  971   1.010   0.225   2.498  0.3913 -0.4036 -1.5983
  243SOL     MW  972   0.991   0.182   2.423  0.6877  0.8189 -0.6637
  244SOL     OW  973   0.154   0.813   2.343 -0.3941 -0.2187  0.3739
  244SOL    HW1  974   0.123   0.900   2.369 -0.4274 -0.7782 -4.1175
  244SOL    HW2  975   0.252   0.807   2.348  0.6251 -0.8325  1.4176
  244SOL     MW  976   0.163   0.824   2.347 -0.2640 -0.3735 -0.0810
  245SOL     OW  977   1.228   0.196   2.308 -0.1462  0.2446 -0.1104
  245SOL    HW1  978   1.288   0.130   2.275  1.1353 -2.3722  0.2316
  245SOL    HW2  979   1.272   0.251   2.377  0.0745  3.1031  0.0996
  245SOL     MW  980   1.242   0.194   2.313  0.0520  0.2765 -0.0375
  246SOL     OW  981   1.199   1.155   2.115 -0.5085 -0.0472  0.1681
  246SOL    HW1  982   1.124   1.119   2.170  1.1886 -1.8246  0.0328
  246SOL    HW2  983   1.272   1.093   2.140  1.9261 -1.4059 -0.7630
  246SOL     MW  984   1.198   1.142   2.126  0.0366 -0.4610  0.0274
  247SOL     OW  985   0.757   0.615   0.212 -0.4708  0.4366  0.1016
  247SOL    HW1  986   0.702   0.690   0.208 -0.2842 -0.1496 -0.0138
  247SOL    HW2  987   0.827   0.632   0.149  1.2527  0.7188 -0.4940
  247SOL     MW  988   0.759   0.627   0.203 -0.2188  0.3965  0.0078
  248SOL     OW  989   0.321   1.292   2.576  0.1793  0.1326 -0.0651
  248SOL    HW1  990   0.351   1.326   2.489  0.0332  2.5714  2.1754
  248SOL    HW2  991   0.349   1.362   2.634 -2.5055 -1.1852 -0.9706
  248SOL     MW  992   0.328   1.305   2.572 -0.1942  0.2805  0.1111
  249SOL     OW  993   0.048   1.869   2.756 -0.9957  0.3364  0.4438
  249SOL    HW1  994   0.030   1.783   2.720 -3.9781  0.2766 -0.6602
  249SOL    HW2  995   0.106   1.851   2.829  2.4629  1.7540 -0.2309
  249SOL     MW  996   0.053   1.855   2.761 -0.9329  0.5155  0.2091
  250SOL     OW  997   2.132   0.897   2.264 -0.0234  0.0610  0.4320
  250SOL    HW1  998   2.144   0.801   2.273 -0.7395 -1.3094 -2.0949
  250SOL    HW2  999   2.218   0.922   2.300 -0.3191  0.9863  0.0709
  250SOL     MW 1000   2.145   0.888   2.270 -0.1569  0.0022  0.0509
  251SOL     OW 1001   0.165   0.887   1.948  0.6030  0.0841 -0.4083
  251SOL    HW1 1002   0.146   0.796   1.972 -1.2784 -1.6282  0.5503
  251SOL    HW2 1003   0.173   0.895   1.856 -0.8289 -0.4050  1.8918
  251SOL     MW 1004   0.163   0.876   1.939  0.1658 -0.2064  0.0217
  252SOL     OW 1005   1.700   0.978   2.924 -0.5385  0.4113 -0.5154
  252SOL    HW1 1006   1.702   1.032   3.000  0.7280  1.0702 -1.7915
  252SOL    HW2 1007   1.784   0.981   2.879 -0.3724  0.4003 -1.2806
  252SOL     MW 1008   1.711   0.986   2.928 -0.3494  0.4968 -0.7847
  253SOL     OW 1009   1.124   1.731   2.485 -0.0968 -0.1048 -0.4161
  253SOL    HW1 1010   1.123   1.700   2.385 -0.8242 -2.2071 -1.1023
  253SOL    HW2 1011   1.052   1.801   2.504  1.9037  2.5884 -0.6072
  253SOL     MW 1012   1.115   1.736   2.474  0.0712 -0.0268 -0.5318
  254SOL     OW 1013   0.957   1.106   2.243 -0.7614  0.0410  0.1018
  254SOL    HW1 1014   0.889   1.036   2.248  0.7463 -1.0040  0.9948
  254SOL    HW2 1015   0.928   1.176   2.304 -1.4829 -1.6169 -2.3634
  254SOL     MW 1016   0.944   1.106   2.252 -0.6577 -0.3156 -0.1057
  255SOL     OW 1017   0.842   2.506   2.165  0.4128 -0.3534  0.9425
  255SOL    HW1 1018   0.750   2.465   2.159 -3.0809  0.4553  1.0180
  255SOL    HW2 1019   0.913   2.441   2.164  2.1303  0.9059  3.0349
  255SOL     MW 1020   0.839   2.492   2.164  0.1785 -0.0805  1.2285
  256SOL     OW 1021   1.265   2.730   2.967 -0.4243  0.0043  0.1202
  256SOL    HW1 1022   1.222   2.688   2.897 -2.1439 -0.4708  0.6701
  256SOL    HW2 1023   1.341   2.772   2.928  0.4273  1.6484 -1.1735
  256SOL     MW 1024   1.269   2.730   2.953 -0.5389  0.1586  0.0220
  257SOL     OW 1025   0.106   1.938   0.011 -1.3105 -0.5458 -0.2058
  257SOL    HW1 1026   0.177   1.927   0.081  0.1478  1.3100  0.4905
  257SOL    HW2 1027   0.128   1.868  -0.049 -0.0190 -2.6982 -0.6386
  257SOL     MW 1028   0.119   1.928   0.012 -0.9477 -0.5850 -0.1710
  258SOL     OW 1029   0.798   0.999   2.508 -0.4362 -0.1548 -0.3840
  258SOL    HW1 1030   0.792   1.091   2.468 -0.5801 -1.1331 -1.0987
  258SOL    HW2 1031   0.741   1.009   2.584 -1.4347 -0.2336  3.7158
  258SOL     MW 1032   0.790   1.013   2.513 -0.5869 -0.2942  0.0626
  259SOL     OW 1033   0.882   0.409   2.281 -0.3854  0.1209 -0.2338
  259SOL    HW1 1034   0.793   0.382   2.249 -0.0785 -0.5861  0.4012
  259SOL    HW2 1035   0.919   0.322   2.311  0.9894  2.1488  1.7007
  259SOL     MW 1036   0.875   0.394   2.281 -0.1635  0.2952  0.1052
  260SOL     OW 1037   0.630   0.134   1.615  0.4354 -0.4791  0.3034
  260SOL    HW1 1038   0.570   0.124   1.545  1.9945  1.9191  0.7806
  260SOL    HW2 1039   0.721   0.136   1.582  1.2470 -0.8521 -1.1406
  260SOL     MW 1040   0.634   0.133   1.601  0.7482 -0.2119  0.1758
  261SOL     OW 1041   1.143   0.716   2.035 -0.4183  0.1739  0.0459
  261SOL    HW1 1042   1.148   0.702   2.137 -0.8422 -0.6837  0.1267
  261SOL    HW2 1043   1.091   0.641   2.011 -2.1747  1.2627  1.0053
  261SOL     MW 1044   1.137   0.704   2.045 -0.7060  0.2044  0.1831
  262SOL     OW 1045   1.068   0.326   0.191  0.2519  0.1229  0.2150
  262SOL    HW1 1046   1.149   0.357   0.153 -1.5728  0.2475  1.4404
  262SOL    HW2 1047   1.031   0.275   0.122 -0.1961  1.0107  1.2651
  262SOL     MW 1048   1.074   0.323   0.177 -0.0480  0.2565  0.5152
  263SOL     OW 1049   0.444   0.039   2.478 -0.8131 -0.0993  0.2208
  263SOL    HW1 1050   0.366   0.091   2.473 -0.0131  0.1199 -0.2973
  263SOL    HW2 1051   0.497   0.058   2.399 -0.5445  0.8952 -0.1552
  263SOL     MW 1052   0.440   0.048   2.467 -0.6721  0.0608  0.1029
  264SOL     OW 1053   1.547   1.333   1.877  0.0961  0.1756  0.3862
  264SOL    HW1 1054   1.522   1.241   1.861  2.1496 -0.7224 -0.4917
  264SOL    HW2 1055   1.630   1.326   1.923  1.9669 -1.0043 -0.0724
  264SOL     MW 1056   1.555   1.320   1.881  0.6138 -0.0985  0.2098
  265SOL     OW 1057   0.778   2.769   2.235 -0.4489 -0.8992 -0.0709
  265SOL    HW1 1058   0.797   2.677   2.212  0.7106 -0.3196 -1.2746
  265SOL    HW2 1059   0.759   2.770   2.329 -0.5569  2.9906  1.1740
  265SOL     MW 1060   0.778   2.757   2.244 -0.3102 -0.3095 -0.0655
  266SOL     OW 1061   0.872   0.825   2.203  0.4499  0.6068 -0.3092
  266SOL    HW1 1062   0.860   0.794   2.109  2.9096  0.1257 -0.6229
  266SOL    HW2 1063   0.957   0.788   2.234  2.3342  1.4920 -0.8778
  266SOL     MW 1064   0.882   0.816   2.194  1.0231  0.6601 -0.4256
  267SOL     OW 1065   1.338   1.771   2.653 -0.2626 -0.4809 -0.2142
  267SOL    HW1 1066   1.411   1.715   2.618 -0.0856  0.4737 -0.9726
  267SOL    HW2 1067   1.262   1.776   2.593  1.0041  0.6134  4.4028
  267SOL     MW 1068   1.338   1.764   2.640 -0.0721 -0.2106  0.2949
  268SOL     OW 1069   0.180   0.914   1.677 -0.4063  0.5368  0.9262
  268SOL    HW1 1070   0.150   1.007   1.654  0.3224 -0.7483 -2.7127
  268SOL    HW2 1071   0.108   0.850   1.663  0.3062  2.0322  1.6011
  268SOL     MW 1072   0.166   0.918   1.672 -0.2161  0.5645  0.5351
  269SOL     OW 1073   1.330   1.986   2.322  0.0843 -0.1425  0.0383
  269SOL    HW1 1074   1.402   2.037   2.353  0.7974 -2.6964  1.8188
  269SOL    HW2 1075   1.255   2.013   2.376 -2.0581  0.9808  2.8203
  269SOL     MW 1076   1.330   1.996   2.333 -0.1043 -0.3312  0.6403
  270SOL     OW 1077   1.161   0.412   1.588  0.2083  0.2020  0.2422
  270SOL    HW1 1078   1.122   0.346   1.642 -0.3982  2.3513 -0.1492
  270SOL    HW2 1079   1.258   0.398   1.584  0.4606  1.4913  0.6472
  270SOL     MW 1080   1.169   0.401   1.595  0.1616  0.6557  0.2440
  271SOL     OW 1081   0.779   0.056   2.508 -0.0374  0.1764 -0.1794
  271SOL    HW1 1082   0.818  -0.024   2.537  2.0591  3.6239 -0.7854
  271SOL    HW2 1083   0.863   0.103   2.478  3.4616  1.0609 -2.7923
  271SOL     MW 1084   0.795   0.052   2.508  0.7009  0.7480 -0.6041
  272SOL     OW 1085   1.492   2.817   2.841 -0.0605  0.3153  0.2988
  272SOL    HW1 1086   1.493   2.811   2.743  0.4583  1.2053  1.2007
  272SOL    HW2 1087   1.497   2.911   2.840 -1.3630  0.8867 -1.0741
  272SOL     MW 1088   1.493   2.829   2.828 -0.1639  0.5081  0.2366
  273SOL     OW 1089   1.470   0.909   2.804 -0.3522 -0.1373  0.1336
  273SOL    HW1 1090   1.553   0.938   2.840 -0.7998 -1.1607 -1.1496
  273SOL    HW2 1091   1.422   0.967   2.745 -0.0246 -0.5705 -0.3298
  273SOL     MW 1092   1.475   0.920   2.801 -0.3680 -0.3295 -0.0968
  274SOL     OW 1093   1.404   0.753   0.128 -0.1574  0.4943  0.0501
  274SOL    HW1 1094   1.448   0.676   0.166 -1.0428 -0.0702 -0.7393
  274SOL    HW2 1095   1.327   0.758   0.184 -1.4379 -2.4614  1.4768
  274SOL     MW 1096   1.400   0.743   0.140 -0.4432  0.0299  0.1342
  275SOL     OW 1097   1.697   0.524   1.764  0.0447 -0.3861 -0.2859
  275SOL    HW1 1098   1.756   0.576   1.822  1.0500 -0.6160 -0.2575
  275SOL    HW2 1099   1.706   0.431   1.791 -0.3448 -1.6528 -0.1678
  275SOL     MW 1100   1.706   0.519   1.775  0.1260 -0.5836 -0.2666
  276SOL     OW 1101   0.399   1.300   1.946  0.3201  0.1571 -0.0692
  276SOL    HW1 1102   0.413   1.204   1.941  2.3775  0.0689 -0.9934
  276SOL    HW2 1103   0.334   1.332   2.006  1.9652  1.2288 -0.3083
  276SOL     MW 1104   0.393   1.291   1.954  0.8086  0.2869 -0.2227
  277SOL     OW 1105   1.961   1.158   2.487  0.4040  0.2177  0.0262
  277SOL    HW1 1106   1.992   1.251   2.489 -1.4502  2.1147 -0.0701
  277SOL    HW2 1107   1.944   1.151   2.391 -0.1030  2.1354  1.0243
  277SOL     MW 1108   1.963   1.169   2.475  0.0925  0.7210  0.1452
  278SOL     OW 1109   1.362   0.671   1.668 -0.2338  0.4915  0.2223
  278SOL    HW1 1110   1.348   0.592   1.721 -0.7301 -2.3240  0.1237
  278SOL    HW2 1111   1.441   0.705   1.702  1.3950 -1.2519  2.6794
  278SOL     MW 1112   1.370   0.665   1.680 -0.0844 -0.1100  0.5335
  279SOL     OW 1113   0.537   0.115   2.208 -0.5707 -0.6558 -0.4427
  279SOL    HW1 1114   0.623   0.071   2.201 -0.2332  0.8048  1.9065
  279SOL    HW2 1115   0.567   0.204   2.182 -1.3151  0.6815  1.7543
  279SOL     MW 1116   0.552   0.121   2.204 -0.6244 -0.2867  0.1571
  280SOL     OW 1117   1.421   0.989   2.159 -0.0945  0.4500  0.0438
  280SOL    HW1 1118   1.476   0.918   2.122  0.6028  2.0199  2.9825
  280SOL    HW2 1119   1.453   0.986   2.252  1.2423 -1.6413 -1.2385
  280SOL     MW 1120   1.432   0.979   2.166  0.1739  0.3812  0.2624
  281SOL     OW 1121   1.365   1.234   2.699  0.2664 -0.9807 -0.1352
  281SOL    HW1 1122   1.453   1.280   2.695 -0.2301  1.4844 -1.8745
  281SOL    HW2 1123   1.352   1.205   2.793 -1.2783  0.4610 -0.6678
  281SOL     MW 1124   1.375   1.236   2.711 -0.0029 -0.4652 -0.4349
  282SOL     OW 1125   1.124   1.251   1.638 -0.2366 -0.0570  0.1005
  282SOL    HW1 1126   1.111   1.337   1.602  1.4315  1.2276  0.3405
  282SOL    HW2 1127   1.059   1.228   1.707 -0.4929  2.5694 -0.8668
  282SOL     MW 1128   1.113   1.259   1.642 -0.0503  0.4590  0.0045
  283SOL     OW 1129   0.829   1.291   3.074 -0.1661  0.8623  0.5535
  283SOL    HW1 1130   0.920   1.276   3.115  0.8452  0.5508  2.6357
  283SOL    HW2 1131   0.803   1.385   3.075  2.7088  1.8045 -0.7469
  283SOL     MW 1132   0.838   1.302   3.079  0.3467  0.9455  0.6567
  284SOL     OW 1133   0.426   0.759   2.379 -0.0927  0.1722  0.3162
  284SOL    HW1 1134   0.495   0.832   2.367 -1.1404  0.6726 -0.0812
  284SOL    HW2 1135   0.453   0.680   2.324  0.6937  1.7539 -0.6613
  284SOL     MW 1136   0.438   0.758   2.370 -0.1271  0.4469  0.1348
  285SOL     OW 1137   0.894   0.883   2.812 -0.3313  0.2681 -0.3102
  285SOL    HW1 1138   0.958   0.876   2.744 -2.6406  0.2199  0.7886
  285SOL    HW2 1139   0.843   0.804   2.807  1.9006  1.7537 -0.9927
  285SOL     MW 1140   0.896   0.872   2.803 -0.3415  0.4577 -0.2553
  286SOL     OW 1141   1.121   1.463   2.610 -0.4546 -0.1997 -0.1973
  286SOL    HW1 1142   1.177   1.472   2.689 -0.1126 -0.6239  1.6774
  286SOL    HW2 1143   1.105   1.554   2.586 -0.5322 -1.8162  0.2092
  286SOL     MW 1144   1.126   1.476   2.618 -0.4197 -0.4689  0.1037
  287SOL     OW 1145   1.192   0.983   0.333  0.3142 -0.3799 -0.1794
  287SOL    HW1 1146   1.207   1.020   0.423  1.0484 -0.6197  0.6866
  287SOL    HW2 1147   1.115   1.035   0.305  2.0958 -2.0832  1.2716
  287SOL     MW 1148   1.184   0.994   0.341  0.6461 -0.6363  0.1263
  288SOL     OW 1149   1.493   0.584   2.052  0.1037  0.4894  0.1506
  288SOL    HW1 1150   1.439   0.601   2.127  0.1110  0.7578  0.5052
  288SOL    HW2 1151   1.521   0.671   2.045 -2.1254 -2.2441 -0.6475
  288SOL     MW 1152   1.490   0.597   2.061 -0.1894  0.1642  0.0921
  289SOL     OW 1153   1.074   0.981   2.554 -0.9654  0.4906 -0.0795
  289SOL    HW1 1154   1.103   0.886   2.547  2.6768  0.1831 -0.4772
  289SOL    HW2 1155   0.986   0.985   2.521  0.9066 -3.0976 -1.5069
  289SOL     MW 1156   1.066   0.969   2.549 -0.2379 -0.0234 -0.3203
  290SOL     OW 1157   0.794   0.602   1.530  0.1882  0.3237 -0.6930
  290SOL    HW1 1158   0.846   0.564   1.459 -0.5381 -0.3907 -1.5094
  290SOL    HW2 1159   0.852   0.621   1.607  1.5020 -4.3732  0.1284
  290SOL     MW 1160   0.808   0.599   1.531  0.2658 -0.3903 -0.6924
  291SOL     OW 1161   0.166   0.406   0.141  0.1959  0.2054  0.1987
  291SOL    HW1 1162   0.241   0.352   0.174 -0.9891 -3.8895 -0.0741
  291SOL    HW2 1163   0.126   0.338   0.089  1.1647 -0.3288  1.6552
  291SOL     MW 1164   0.170   0.390   0.138  0.1674 -0.4054  0.3549
  292SOL     OW 1165   1.014   0.589   0.087  0.7320  0.0211 -0.0908
  292SOL    HW1 1166   1.053   0.664   0.127  0.3326  3.4982 -1.5864
  292SOL    HW2 1167   1.033   0.522   0.149 -0.4393 -0.3600 -2.3937
  292SOL     MW 1168   1.021   0.590   0.100  0.5248  0.4296 -0.5919
  293SOL     OW 1169   0.141   0.159   2.469 -0.4211  0.8035  0.6743
  293SOL    HW1 1170   0.082   0.098   2.420 -0.1742 -3.0678  0.8913
  293SOL    HW2 1171   0.090   0.183   2.544  0.0061  0.4420 -0.5512
  293SOL     MW 1172   0.127   0.154   2.472 -0.3322  0.2450  0.5412
  294SOL     OW 1173   1.405   0.561   2.332 -0.5550 -0.4867 -0.2898
  294SOL    HW1 1174   1.444   0.613   2.405  1.4911 -0.9534  0.0465
  294SOL    HW2 1175   1.426   0.471   2.349  3.3378 -0.0982 -1.6452
  294SOL     MW 1176   1.413   0.556   2.344  0.2286 -0.4970 -0.4242
  295SOL     OW 1177   0.955   0.529   2.534  0.2984  0.0648  0.4843
  295SOL    HW1 1178   0.902   0.494   2.462  0.0220  0.7051 -0.6508
  295SOL    HW2 1179   0.891   0.560   2.605 -1.1279  0.2889  0.1846
  295SOL     MW 1180   0.940   0.529   2.534  0.0737  0.1788  0.2950
  296SOL     OW 1181   1.220   0.270   2.047 -0.2751 -0.3671  0.4667
  296SOL    HW1 1182   1.302   0.222   2.028  0.4121  0.7111  0.1057
  296SOL    HW2 1183   1.214   0.265   2.141 -1.4042 -0.8131 -2.6692
  296SOL     MW 1184   1.230   0.263   2.057 -0.3334 -0.2837  0.0053
  297SOL     OW 1185   1.437   0.406   1.554 -0.4279  0.0126  0.2463
  297SOL    HW1 1186   1.481   0.475   1.608  1.4375  2.1238  0.8551
  297SOL    HW2 1187   1.478   0.328   1.587  1.3034 -1.1357 -3.7301
  297SOL     MW 1188   1.448   0.405   1.566  0.0466  0.1397 -0.1981
  298SOL     OW 1189   1.634   0.850   2.026 -0.4657  0.0155  0.3319
  298SOL    HW1 1190   1.694   0.908   1.977  0.6484 -0.5455 -0.2550
  298SOL    HW2 1191   1.677   0.816   2.101 -0.3124  1.0971  3.6303
  298SOL     MW 1192   1.647   0.853   2.029 -0.2985  0.0842  0.6896
  299SOL     OW 1193   0.619   1.108   0.031  0.2264  0.1052 -0.4660
  299SOL    HW1 1194   0.590   1.101  -0.057 -0.1567 -2.9996  0.3898
  299SOL    HW2 1195   0.674   1.185   0.032  1.4064  0.5726  2.7344
  299SOL     MW 1196   0.623   1.117   0.019  0.3315 -0.2428  0.0692
  300SOL     OW 1197   1.232   1.173   2.477 -0.2936 -0.6165  0.0669
  300SOL    HW1 1198   1.165   1.106   2.502  0.8002 -1.6841 -3.3341
  300SOL    HW2 1199   1.275   1.212   2.554  2.3883 -0.6230 -1.8897
  300SOL     MW 1200   1.229   1.169   2.490  0.2046 -0.7582 -0.6400
  301SOL     OW 1201   1.451   0.970   0.660 -0.6849 -0.4834  0.1344
  301SOL    HW1 1202   1.461   0.999   0.748  0.8134  0.3984 -0.3770
  301SOL    HW2 1203   1.385   0.907   0.678  4.0490 -1.2022 -0.6356
  301SOL     MW 1204   1.443   0.965   0.674  0.1373 -0.4619 -0.0346
  302SOL     OW 1205   0.193   1.557   2.011  0.4390 -0.7534  0.9652
  302SOL    HW1 1206   0.206   1.487   2.075  2.1734 -0.6545  0.6882
  302SOL    HW2 1207   0.125   1.614   2.046  3.0509  0.9725  0.7890
  302SOL     MW 1208   0.186   1.555   2.024  1.0125 -0.5126  0.9054
  303SOL     OW 1209   0.383   1.799   2.700 -0.6948  0.3395  0.0440
  303SOL    HW1 1210   0.337   1.802   2.613  0.3606  0.1076 -1.5746
  303SOL    HW2 1211   0.316   1.798   2.765  2.4355 -0.0548  4.0815
  303SOL     MW 1212   0.368   1.799   2.697 -0.1425  0.2569  0.3632
  304SOL     OW 1213   0.495   2.044   2.340 -0.0161 -0.5269 -0.4312
  304SOL    HW1 1214   0.549   2.122   2.304  1.0976  1.6546 -1.0709
  304SOL    HW2 1215   0.546   1.965   2.351 -1.7849  0.2299  1.2949
  304SOL     MW 1216   0.509   2.044   2.336 -0.1026 -0.1392 -0.2879
  305SOL     OW 1217   1.087   0.586   0.538  0.2219  0.4844  0.5824
  305SOL    HW1 1218   0.994   0.570   0.543  1.3280  1.1997 -1.8310
  305SOL    HW2 1219   1.119   0.496   0.551 -1.7338  0.6875  0.7575
  305SOL     MW 1220   1.079   0.572   0.540  0.1098  0.6056  0.2871
  306SOL     OW 1221   1.192   1.560   0.263 -0.0869 -0.2010 -0.7689
  306SOL    HW1 1222   1.212   1.465   0.293  1.2893  2.2751  1.5244
  306SOL    HW2 1223   1.253   1.578   0.192  0.6721  0.2294 -1.7308
  306SOL     MW 1224   1.203   1.550   0.257  0.1948  0.1825 -0.5933
  307SOL     OW 1225   1.339   0.458   1.864 -0.3584 -0.6833  0.1514
  307SOL    HW1 1226   1.304   0.381   1.914  1.2860 -0.8596  1.1553
  307SOL    HW2 1227   1.394   0.496   1.931  0.2845  3.7301  0.0125
  307SOL     MW 1228   1.342   0.453   1.879 -0.0566 -0.1242  0.2656
  308SOL     OW 1229   2.205   0.517   2.702  0.4393  0.0193 -0.5347
  308SOL    HW1 1230   2.304   0.520   2.712 -0.2310  2.1442  0.2446
  308SOL    HW2 1231   2.191   0.614   2.686 -0.1616 -0.0277 -2.0374
  308SOL     MW 1232   2.216   0.530   2.701  0.2715  0.2935 -0.6302
  309SOL     OW 1233   0.469   0.524   0.233  0.1519  0.6587 -0.2793
  309SOL    HW1 1234   0.537   0.535   0.300 -0.1707  2.4069 -1.1194
  309SOL    HW2 1235   0.472   0.430   0.209  0.9475  0.0821  1.1284
  309SOL     MW 1236   0.479   0.513   0.239  0.2143  0.8132 -0.2044
  310SOL     OW 1237   0.439   0.582   1.896  0.6916 -0.1679 -0.2680
  310SOL    HW1 1238   0.466   0.492   1.889  0.0363  3.5627 -0.3421
  310SOL    HW2 1239   0.495   0.640   1.842  1.3945 -1.2272 -3.1805
  310SOL     MW 1240   0.450   0.578   1.888  0.6978  0.1846 -0.6620
  311SOL     OW 1241   1.886   0.637   1.936 -0.0228  0.5130  0.8517
  311SOL    HW1 1242   1.867   0.673   2.020 -1.5869  0.1425 -0.7549
  311SOL    HW2 1243   1.941   0.556   1.949 -1.7916 -0.7326 -1.5463
  311SOL     MW 1244   1.891   0.631   1.949 -0.4626  0.2998  0.3234
  312SOL     OW 1245   1.825   2.473   0.207 -0.2087 -0.4590  0.1525
  312SOL    HW1 1246   1.905   2.490   0.258 -1.2627  2.0867  0.6237
  312SOL    HW2 1247   1.753   2.507   0.259  1.6866 -1.3575  0.8450
  312SOL     MW 1248   1.826   2.479   0.221 -0.0977 -0.2416  0.3060
  313SOL     OW 1249   0.123   1.108   2.975 -0.4068 -0.8239  0.6292
  313SOL    HW1 1250   0.092   1.126   3.070  0.5070  0.7385 -0.4334
  313SOL    HW2 1251   0.206   1.155   2.958  0.7917  0.6916 -0.1227
  313SOL     MW 1252   0.130   1.117   2.985 -0.1281 -0.4178  0.3898
  314SOL     OW 1253   2.155   3.006   2.958 -0.6390 -0.0857  0.4085
  314SOL    HW1 1254   2.082   3.059   2.922  1.9846 -0.7822 -0.7625
  314SOL    HW2 1255   2.201   3.081   3.004 -1.4587  0.0564 -0.7340
  314SOL     MW 1256   2.152   3.023   2.959 -0.4010 -0.1588  0.1033
  315SOL     OW 1257   1.531   1.839   3.010  0.4335  0.1233  0.1083
  315SOL    HW1 1258   1.488   1.859   3.097 -3.2909 -1.0056  0.9954
  315SOL    HW2 1259   1.539   1.930   2.967  0.6896 -0.0277  3.1812
  315SOL     MW 1260   1.526   1.853   3.016 -0.0241 -0.0456  0.6307
  316SOL     OW 1261   1.288   0.542   2.718 -0.9075  0.3196 -0.1917
  316SOL    HW1 1262   1.369   0.566   2.761  0.9630  1.0411  1.1340
  316SOL    HW2 1263   1.231   0.538   2.799 -0.6303  1.8365 -1.5120
  316SOL     MW 1264   1.291   0.545   2.735 -0.6241  0.6149 -0.1910
  317SOL     OW 1265   0.682   1.511   2.645  0.4744  0.3333  0.0825
  317SOL    HW1 1266   0.762   1.443   2.656  1.9979 -0.8814  1.5654
  317SOL    HW2 1267   0.667   1.537   2.552  0.2204 -0.2776  0.7002
  317SOL     MW 1268   0.691   1.506   2.634  0.6419  0.0924  0.3597
  318SOL     OW 1269   1.362   0.327   2.963 -0.2377 -0.0699 -0.4696
  318SOL    HW1 1270   1.267   0.344   2.940  0.0985 -2.6209  0.6199
  318SOL    HW2 1271   1.413   0.406   2.933  2.8360  0.8183 -0.6824
  318SOL     MW 1272   1.356   0.340   2.956  0.2122 -0.2893 -0.3539
  319SOL     OW 1273   0.861   0.382   2.917 -0.0310 -0.7259  0.2525
  319SOL    HW1 1274   0.794   0.348   2.858  2.7498 -0.9270  0.8482
  319SOL    HW2 1275   0.812   0.390   2.999 -3.2087 -2.7347 -0.7762
  319SOL     MW 1276   0.846   0.379   2.920 -0.0833 -1.0175  0.1953
  320SOL     OW 1277   1.068   1.358   1.984 -0.3781  0.4840  0.2013
  320SOL    HW1 1278   1.126   1.288   2.027  1.1146 -0.4465 -1.2086
  320SOL    HW2 1279   1.120   1.439   1.973  0.7256  1.8803  0.7396
  320SOL     MW 1280   1.082   1.359   1.988 -0.0355  0.5455  0.0863
  321SOL     OW 1281   1.132   0.917   3.022 -0.2179 -0.3527 -0.1967
  321SOL    HW1 1282   1.047   0.902   2.979  1.6625 -0.0623 -1.4308
  321SOL    HW2 1283   1.195   0.842   3.015  2.6576 -0.1075  2.0361
  321SOL     MW 1284   1.129   0.905   3.016  0.4096 -0.2821 -0.0650
  322SOL     OW 1285   1.168   0.864   1.675 -0.3177 -0.3609 -0.0957
  322SOL    HW1 1286   1.237   0.789   1.687  1.1471 -2.1169 -0.5824
  322SOL    HW2 1287   1.147   0.908   1.761  0.1494  1.6922 -0.0945
  322SOL     MW 1288   1.174   0.860   1.688 -0.0628 -0.3217 -0.1598
  323SOL     OW 1289   1.237   1.557   1.886 -0.3686  0.6938 -0.1119
  323SOL    HW1 1290   1.276   1.558   1.795 -0.0412  0.5767 -0.3302
  323SOL    HW2 1291   1.167   1.629   1.876  2.2105  1.1532  3.5290
  323SOL     MW 1292   1.233   1.567   1.873  0.0149  0.7389  0.3396
  324SOL     OW 1293   1.487   1.026   2.416 -0.1422  0.4528  0.0229
  324SOL    HW1 1294   1.421   1.089   2.447 -3.3105  2.2987  1.0072
  324SOL    HW2 1295   1.573   1.063   2.431  0.4293 -0.8838 -1.5754
  324SOL     MW 1296   1.489   1.039   2.422 -0.4848  0.5200 -0.0581
  325SOL     OW 1297   1.112   0.514   2.935  0.1553  0.1162  0.4301
  325SOL    HW1 1298   1.105   0.573   3.006 -0.4719 -0.9153 -0.8692
  325SOL    HW2 1299   1.027   0.475   2.936 -0.9352 -1.9768 -0.4094
  325SOL     MW 1300   1.100   0.516   2.944 -0.0713 -0.2960  0.1479
  326SOL     OW 1301   0.410   1.370   2.309 -0.8183 -0.1260 -0.3791
  326SOL    HW1 1302   0.483   1.339   2.245  2.8276  0.6278  0.3632
  326SOL    HW2 1303   0.384   1.455   2.271  0.4329 -3.8235 -0.5062
  326SOL     MW 1304   0.417   1.378   2.296 -0.1722 -0.5144 -0.2979
  327SOL     OW 1305   1.922   0.781   2.436  0.1628  0.2460  0.1595
  327SOL    HW1 1306   1.905   0.726   2.516 -0.4936  0.9384  0.0923
  327SOL    HW2 1307   1.986   0.842   2.469  0.1804 -2.2183 -2.0908
  327SOL     MW 1308   1.928   0.782   2.451  0.0785  0.0122 -0.1463
  328SOL     OW 1309   0.197   1.323   2.152  0.2934 -0.2975 -0.3316
  328SOL    HW1 1310   0.147   1.241   2.150  0.7778 -0.0650  1.6076
  328SOL    HW2 1311   0.258   1.320   2.227  3.2486 -1.5976 -0.9649
  328SOL     MW 1312   0.199   1.312   2.162  0.7472 -0.4384 -0.1593
  329SOL     OW 1313   0.031   0.204   1.409 -0.6789 -0.4136 -0.1813
  329SOL    HW1 1314  -0.010   0.203   1.502 -0.4729 -0.6452  2.2261
  329SOL    HW2 1315   0.124   0.194   1.414 -0.1802 -0.7241  1.8023
  329SOL     MW 1316   0.038   0.202   1.422 -0.5859 -0.4852  0.3980
  330SOL     OW 1317   0.379   3.039   2.043  0.2875 -0.2610 -0.3717
  330SOL    HW1 1318   0.443   3.098   2.081 -1.0802  0.5663  0.9670
  330SOL    HW2 1319   0.339   3.002   2.125  1.7415  2.3756  0.3453
  330SOL     MW 1320   0.382   3.041   2.059  0.2989  0.1960 -0.1005
  331SOL     OW 1321   0.828   1.242   2.422 -0.1257  0.0245  0.4484
  331SOL    HW1 1322   0.758   1.293   2.386 -0.0031 -0.2071  1.1010
  331SOL    HW2 1323   0.852   1.284   2.507  0.3251  2.2722  0.9243
  331SOL     MW 1324   0.822   1.254   2.429 -0.0501  0.2905  0.5973
  332SOL     OW 1325   1.353   1.652   2.899 -0.1233 -0.4922 -0.5303
  332SOL    HW1 1326   1.362   1.682   2.808  0.4256  0.5737  0.7582
  332SOL    HW2 1327   1.403   1.720   2.949 -1.1647 -1.8344 -0.2892
  332SOL     MW 1328   1.361   1.665   2.894 -0.1883 -0.5287 -0.3285
  333SOL     OW 1329   1.742   1.380   2.931  0.1833  0.1401 -0.2125
  333SOL    HW1 1330   1.837   1.397   2.962  3.9569 -0.3710 -1.1808
  333SOL    HW2 1331   1.725   1.284   2.944 -0.5697 -1.0240  1.8048
  333SOL     MW 1332   1.753   1.370   2.937  0.5819 -0.0809 -0.0741
  334SOL     OW 1333   1.264   3.077   2.553  0.0376 -0.3401 -0.1467
  334SOL    HW1 1334   1.213   3.074   2.635  0.5607 -2.9649  2.4264
  334SOL    HW2 1335   1.312   3.155   2.551 -1.9703 -1.8082 -1.8371
  334SOL     MW 1336   1.263   3.087   2.564 -0.1583 -0.8801 -0.0303
  335SOL     OW 1337   1.315   0.743   2.951  0.0089  0.2778  0.1935
  335SOL    HW1 1338   1.351   0.741   3.042 -0.0518 -1.8923  0.5355
  335SOL    HW2 1339   1.376   0.806   2.893 -2.5216  0.0621 -1.8779
  335SOL     MW 1340   1.328   0.751   2.955 -0.3330 -0.0370 -0.0347
  336SOL     OW 1341   0.954   1.172   1.839  0.4793 -0.3653 -0.2935
  336SOL    HW1 1342   0.975   1.248   1.905 -0.5335 -0.3223  1.4964
  336SOL    HW2 1343   0.990   1.092   1.881 -0.1415  0.3597  1.4886
  336SOL     MW 1344   0.962   1.172   1.853  0.2637 -0.2640  0.1778
  337SOL     OW 1345   0.654   1.827   2.763 -0.6670  0.2983  0.1467
  337SOL    HW1 1346   0.602   1.824   2.682 -0.8002 -1.5442 -0.8436
  337SOL    HW2 1347   0.720   1.758   2.748  0.3002 -0.0063 -0.5787
  337SOL     MW 1348   0.656   1.817   2.750 -0.5570  0.0150 -0.0797
  338SOL     OW 1349   1.145   0.719   2.574  0.0198 -0.2984 -0.2363
  338SOL    HW1 1350   1.064   0.668   2.548 -0.1894 -0.1086 -0.2825
  338SOL    HW2 1351   1.198   0.664   2.629 -1.2925  2.6436 -0.1300
  338SOL     MW 1352   1.141   0.705   2.577 -0.1809  0.1148 -0.2283
  339SOL     OW 1353   1.510   1.061   1.826  0.2840  0.0830 -0.1932
  339SOL    HW1 1354   1.439   1.053   1.761  1.7626 -1.2433 -2.6921
  339SOL    HW2 1355   1.472   1.050   1.913  0.4922  0.9159 -0.2843
  339SOL     MW 1356   1.496   1.059   1.829  0.5065  0.0179 -0.5349
  340SOL     OW 1357   1.331   1.522   0.032  0.0752 -0.2712  0.1189
  340SOL    HW1 1358   1.348   1.552  -0.055  2.1557  0.0537  1.1752
  340SOL    HW2 1359   1.410   1.472   0.054 -2.2339  1.7121 -0.6028
  340SOL     MW 1360   1.344   1.520   0.024  0.0450  0.0333  0.1631
  341SOL     OW 1361   0.092   1.358   2.739  0.6994  0.0044 -0.2624
  341SOL    HW1 1362   0.177   1.312   2.760  2.1104  2.9804 -0.0498
  341SOL    HW2 1363   0.055   1.313   2.658  0.0651 -0.5399 -0.2941
  341SOL     MW 1364   0.098   1.346   2.731  0.8019  0.3252 -0.2385
  342SOL     OW 1365   1.349   0.357   0.147  0.4035 -0.0305  0.3796
  342SOL    HW1 1366   1.391   0.427   0.192  1.9739  3.4238 -0.1883
  342SOL    HW2 1367   1.381   0.368   0.056  1.9788  0.5837 -0.4590
  342SOL     MW 1368   1.359   0.368   0.141  0.8186  0.5063  0.1940
  343SOL     OW 1369   0.279   0.303   2.178  0.5237  0.1668  0.8331
  343SOL    HW1 1370   0.320   0.262   2.254 -3.4242  0.0182  0.2545
  343SOL    HW2 1371   0.223   0.237   2.135 -0.3770 -1.7285  3.9215
  343SOL     MW 1372   0.277   0.289   2.183 -0.1160 -0.1029  1.1642
  344SOL     OW 1373   1.656   2.061   0.187 -0.2280 -0.1860  0.3843
  344SOL    HW1 1374   1.690   2.123   0.123 -2.1812 -2.7327 -2.9330
  344SOL    HW2 1375   1.575   2.016   0.147 -0.4139  0.2944  2.1591
  344SOL     MW 1376   1.649   2.063   0.173 -0.5102 -0.4587  0.1808
  345SOL     OW 1377   0.710   1.560   2.387 -0.2641 -0.4666  0.3124
  345SOL    HW1 1378   0.635   1.512   2.351  0.3685  1.3674  1.0419
  345SOL    HW2 1379   0.769   1.544   2.309  1.1995  1.5465  0.1483
  345SOL     MW 1380   0.708   1.551   2.372  0.0125  0.0410  0.3870
  346SOL     OW 1381   1.748   1.154   0.043 -0.0954 -0.1531 -0.2792
  346SOL    HW1 1382   1.844   1.180   0.042 -0.9148  3.7099 -0.1075
  346SOL    HW2 1383   1.735   1.080   0.108  2.9044  0.8653  2.4507
  346SOL     MW 1384   1.759   1.148   0.051  0.1923  0.4910  0.1036
  347SOL     OW 1385   1.147   0.682   2.309 -0.5460  0.8153 -0.3242
  347SOL    HW1 1386   1.222   0.630   2.294 -0.8196  1.5767 -2.1560
  347SOL    HW2 1387   1.156   0.705   2.397  3.8263  0.7239 -0.9012
  347SOL     MW 1388   1.158   0.678   2.319 -0.0052  0.9037 -0.6420
  348SOL     OW 1389   1.296   2.618   1.878  0.1501 -0.2444 -0.2076
  348SOL    HW1 1390   1.304   2.536   1.933 -0.8801 -0.4646  0.9809
  348SOL    HW2 1391   1.352   2.682   1.933  0.3245 -0.9255  2.9847
  348SOL     MW 1392   1.305   2.616   1.893  0.0372 -0.3634  0.3704
  349SOL     OW 1393   1.423   0.214   2.697 -0.4495 -0.2217  0.2420
  349SOL    HW1 1394   1.380   0.261   2.768 -1.7652  0.7859  1.0842
  349SOL    HW2 1395   1.471   0.140   2.740  1.0899 -2.6038  0.0372
  349SOL     MW 1396   1.424   0.211   2.712 -0.4200 -0.4031  0.3261
  350SOL     OW 1397   1.819   0.629   2.667 -0.0079 -0.3986  0.2594
  350SOL    HW1 1398   1.768   0.571   2.603 -0.7670  1.1554 -2.6552
  350SOL    HW2 1399   1.883   0.573   2.719 -4.5798  2.0705  1.1779
  350SOL     MW 1400   1.821   0.614   2.666 -0.7113  0.1322 -0.0040
  351SOL     OW 1401   0.075   1.156   1.607 -0.4396  0.3901 -0.1442
  351SOL    HW1 1402  -0.006   1.146   1.657  3.5057 -1.9093  0.1190
  351SOL    HW2 1403   0.147   1.214   1.649  1.5128  1.2506 -0.2685
  351SOL     MW 1404   0.074   1.162   1.619  0.3385  0.2002 -0.1259
  352SOL     OW 1405   0.871   1.664   2.749 -0.2014  0.4655  0.1592
  352SOL    HW1 1406   0.869   1.609   2.833 -0.5907 -1.3779  3.0892
  352SOL    HW2 1407   0.828   1.609   2.684  1.5544  0.4092  0.1570
  352SOL     MW 1408   0.865   1.650   2.751 -0.0211  0.2149  0.5455
  353SOL     OW 1409   0.035   2.513   2.743  0.1565  0.2070 -0.1055
  353SOL    HW1 1410   0.129   2.502   2.731  2.6635  1.1963  1.8093
  353SOL    HW2 1411   0.014   2.597   2.703  1.8225 -0.7726  0.1898
  353SOL     MW 1412   0.044   2.523   2.736  0.7071  0.2083  0.1861
  354SOL     OW 1413   0.296   2.463   0.799  0.0095 -0.5565  0.2471
  354SOL    HW1 1414   0.333   2.432   0.881  2.6888 -0.7817  0.5875
  354SOL    HW2 1415   0.222   2.404   0.799  3.3905  0.6667 -1.4586
  354SOL     MW 1416   0.291   2.451   0.810  0.8091 -0.4248  0.0670
  355SOL     OW 1417   3.088   2.234   0.357  0.2374  0.0896 -0.9090
  355SOL    HW1 1418   3.001   2.191   0.353 -0.0023 -2.0257  0.8467
  355SOL    HW2 1419   3.078   2.276   0.443 -3.9653 -2.0524 -2.5218
  355SOL     MW 1420   3.075   2.234   0.368 -0.3487 -0.4721 -0.8902
  356SOL     OW 1421   0.842   2.792   0.967  0.1649 -0.1380 -0.8071
  356SOL    HW1 1422   0.886   2.846   0.903 -1.4506  0.5564 -0.1512
  356SOL    HW2 1423   0.743   2.809   0.957 -3.0103 -3.0639  0.0543
  356SOL     MW 1424   0.835   2.801   0.957 -0.4672 -0.4324 -0.6069
  357SOL     OW 1425   1.783   2.872   0.398 -0.1585 -0.0375  0.4382
  357SOL    HW1 1426   1.778   2.844   0.490  2.0931 -3.2313  0.6614
  357SOL    HW2 1427   1.858   2.828   0.359 -2.6614 -2.5502 -1.4522
  357SOL     MW 1428   1.792   2.863   0.405 -0.1917 -0.7904  0.2182
  358SOL     OW 1429   0.462   0.139   1.023 -0.0075  0.0269 -0.1133
  358SOL    HW1 1430   0.553   0.137   1.007 -1.4646 -1.6291  1.0989
  358SOL    HW2 1431   0.412   0.174   0.950 -1.5446 -2.8378  0.7993
  358SOL     MW 1432   0.467   0.143   1.011 -0.4026 -0.5696  0.1671
  359SOL     OW 1433   0.815   2.865   1.877 -0.4860  0.4352  0.4668
  359SOL    HW1 1434   0.799   2.777   1.905  0.6190 -0.7930 -1.9021
  359SOL    HW2 1435   0.857   2.849   1.793 -0.4616 -0.3594 -0.0139
  359SOL     MW 1436   0.819   2.852   1.870 -0.3370  0.1683  0.0908
  360SOL     OW 1437   0.569   2.808   0.899 -0.0201  0.2539 -0.1209
  360SOL    HW1 1438   0.583   2.783   0.805 -1.1549 -0.7427  0.0075
  360SOL    HW2 1439   0.564   2.717   0.937 -1.1070  1.5927  0.0678
  360SOL     MW 1440   0.570   2.793   0.891 -0.3133  0.2991 -0.0790
  361SOL     OW 1441   0.208   2.621   1.338  0.2994 -0.0597  0.1773
  361SOL    HW1 1442   0.183   2.697   1.389 -0.8238 -0.1051  0.2192
  361SOL    HW2 1443   0.306   2.615   1.332 -1.8693 -0.6725  0.7242
  361SOL     MW 1444   0.218   2.630   1.344 -0.1349 -0.1465  0.2550
  362SOL     OW 1445   1.446   2.399   0.666 -0.0615 -0.1458 -0.1347
  362SOL    HW1 1446   1.458   2.358   0.758  0.8524  0.2822 -0.9360
  362SOL    HW2 1447   1.484   2.492   0.668  0.2128 -1.4991 -2.0911
  362SOL     MW 1448   1.453   2.405   0.679  0.0953 -0.2679 -0.4986
  363SOL     OW 1449   0.307   3.100   0.633 -0.6312  0.2909  0.4185
  363SOL    HW1 1450   0.293   3.041   0.702  2.2708  0.4216 -0.5847
  363SOL    HW2 1451   0.223   3.104   0.581 -0.7145  0.8256  0.5150
  363SOL     MW 1452   0.294   3.093   0.635 -0.2593  0.3787  0.2989
  364SOL     OW 1453   0.726   0.224   0.225 -0.1296  0.5793 -0.1600
  364SOL    HW1 1454   0.664   0.148   0.239 -1.1561 -0.2186 -1.5314
  364SOL    HW2 1455   0.698   0.274   0.147 -2.9716 -0.7482 -1.0560
  364SOL     MW 1456   0.714   0.220   0.217 -0.6400  0.2989 -0.4591
  365SOL     OW 1457   0.983   1.976   1.170  0.3775 -0.1276 -0.5504
  365SOL    HW1 1458   0.948   2.067   1.153 -0.6881  1.6662 -0.2546
  365SOL    HW2 1459   0.919   1.916   1.121  1.1906 -2.2653  1.8056
  365SOL     MW 1460   0.970   1.980   1.161  0.3442 -0.1730 -0.2006
  366SOL     OW 1461   2.934   2.662   0.977  1.1934  0.6000 -0.5055
  366SOL    HW1 1462   3.003   2.672   1.037 -1.3442 -1.8032  0.4663
  366SOL    HW2 1463   2.965   2.691   0.890  1.2757 -0.9836  0.6339
  366SOL     MW 1464   2.947   2.667   0.973  0.8694  0.0740 -0.2269
  367SOL     OW 1465   1.251   2.925   0.855 -0.0181 -0.2381  0.1192
  367SOL    HW1 1466   1.283   3.000   0.802  1.8796  0.3799  0.5951
  367SOL    HW2 1467   1.208   2.864   0.796 -0.1695 -1.9839 -0.8097
  367SOL     MW 1468   1.249   2.927   0.840  0.2123 -0.3869  0.0595
  368SOL     OW 1469   1.662   0.351   0.742  0.2682 -0.2553 -0.0356
  368SOL    HW1 1470   1.723   0.333   0.668 -1.9200 -4.0326 -0.1273
  368SOL    HW2 1471   1.680   0.442   0.762  2.1557 -1.0085  1.1718
  368SOL     MW 1472   1.672   0.361   0.735  0.2285 -0.8530  0.1116
  369SOL     OW 1473   0.133   2.416   1.787 -0.0842 -0.3956 -0.1741
  369SOL    HW1 1474   0.231   2.398   1.782  2.3615 -0.7645 -1.8384
  369SOL    HW2 1475   0.113   2.514   1.780  0.0792  0.6571 -0.7538
  369SOL     MW 1476   0.143   2.426   1.785  0.2600 -0.3054 -0.4702
  370SOL     OW 1477   0.752   0.161   0.913  0.2163 -0.1573 -0.5458
  370SOL    HW1 1478   0.763   0.250   0.942  0.6885  0.5727 -0.6016
  370SOL    HW2 1479   0.834   0.122   0.939 -2.0885  3.4052 -2.5716
  370SOL     MW 1480   0.765   0.167   0.921 -0.0255  0.4091 -0.8205
  371SOL     OW 1481   1.311   2.863   1.519 -1.0936 -0.0289 -0.2097
  371SOL    HW1 1482   1.266   2.787   1.477  2.9870  0.7470 -2.1172
  371SOL    HW2 1483   1.303   2.932   1.453  2.1275  2.8097  0.0299
  371SOL     MW 1484   1.304   2.862   1.505 -0.1302  0.4480 -0.4297
  372SOL     OW 1485   0.799   2.285   0.469  0.1945  0.2989 -0.6786
  372SOL    HW1 1486   0.761   2.208   0.513 -2.5550  4.1018  1.0809
  372SOL    HW2 1487   0.827   2.272   0.370  0.5642 -0.4691 -2.3449
  372SOL     MW 1488   0.798   2.273   0.462 -0.1195  0.6993 -0.6663
  373SOL     OW 1489   2.822   3.024   1.455  0.0612  0.4448  0.2538
  373SOL    HW1 1490   2.917   3.018   1.431 -0.3761 -0.9675 -0.4089
  373SOL    HW2 1491   2.798   3.114   1.417 -1.4782 -2.1985 -2.6356
  373SOL     MW 1492   2.831   3.035   1.447 -0.1996 -0.0903 -0.2149
  374SOL     OW 1493   1.497   0.546   0.299  0.1392  0.4691  0.4079
  374SOL    HW1 1494   1.562   0.476   0.288 -0.9216  1.0181 -0.2673
  374SOL    HW2 1495   1.457   0.511   0.377  0.1348 -0.9237 -1.9241
  374SOL     MW 1496   1.501   0.532   0.308 -0.0013  0.3578  0.0112
  375SOL     OW 1497   0.980   2.098   2.241  0.1181  0.2603  0.1415
  375SOL    HW1 1498   1.034   2.069   2.316  1.1509  2.0120 -0.9366
  375SOL    HW2 1499   1.007   2.022   2.184  0.0909  0.0317  0.6980
  375SOL     MW 1500   0.991   2.084   2.243  0.2508  0.4613  0.0726
  376SOL     OW 1501   0.758   2.543   0.046 -0.7107 -0.7259  0.1931
  376SOL    HW1 1502   0.763   2.497   0.130 -0.4444  3.9627 -0.9530
  376SOL    HW2 1503   0.743   2.492  -0.032 -0.0079 -0.2238 -1.1333
  376SOL     MW 1504   0.757   2.530   0.047 -0.5828 -0.0410 -0.1331
  377SOL     OW 1505   1.255   2.030   0.849 -0.5049  0.5400  0.4915
  377SOL    HW1 1506   1.167   2.026   0.803  1.3497  0.9293  3.0685
  377SOL    HW2 1507   1.250   1.974   0.931  0.8038 -1.9739  0.6020
  377SOL     MW 1508   1.243   2.022   0.853 -0.0875  0.2597  0.8461
  378SOL     OW 1509   0.906   2.842   1.588  0.3003 -0.0605  0.3344
  378SOL    HW1 1510   0.910   2.748   1.577 -0.3668 -0.6862 -0.2113
  378SOL    HW2 1511   0.897   2.883   1.498  0.6682  0.7841 -1.0248
  378SOL     MW 1512   0.906   2.835   1.575  0.2608 -0.0316  0.0831
  379SOL     OW 1513   1.111   1.699   2.216  0.4121  0.3910 -0.8157
  379SOL    HW1 1514   1.042   1.633   2.210  1.0300 -1.2320  0.5638
  379SOL    HW2 1515   1.188   1.667   2.172 -1.8041 -1.0522 -0.3037
  379SOL     MW 1516   1.112   1.686   2.209  0.2012 -0.0135 -0.5661
  380SOL     OW 1517   0.879   0.122   1.496  0.1714  0.3279 -0.6895
  380SOL    HW1 1518   0.879   0.028   1.460  0.4586 -0.4426 -0.6245
  380SOL    HW2 1519   0.920   0.118   1.585 -0.2763  1.3221  3.5073
  380SOL     MW 1520   0.884   0.109   1.503  0.1502  0.3574 -0.1272
  381SOL     OW 1521   0.738   2.047   0.842 -0.7454  0.4494  0.2847
  381SOL    HW1 1522   0.829   2.034   0.812 -0.1591  0.9332 -0.2371
  381SOL    HW2 1523   0.753   2.120   0.899 -0.5797 -3.0238 -0.9280
  381SOL     MW 1524   0.752   2.055   0.845 -0.6462  0.0550  0.0558
  382SOL     OW 1525   0.707   0.110   0.643 -0.1132  0.5271  0.1674
  382SOL    HW1 1526   0.705   0.122   0.739  0.0289  1.7038 -0.1015
  382SOL    HW2 1527   0.688   0.011   0.633 -0.0547  1.8289  0.0008
  382SOL     MW 1528   0.705   0.099   0.654 -0.0867  0.8541  0.1099
  383SOL     OW 1529   0.563   0.030   0.282  0.0365 -0.2755 -0.0931
  383SOL    HW1 1530   0.615  -0.044   0.243  1.9730 -1.2538  0.6563
  383SOL    HW2 1531   0.503  -0.012   0.350 -0.1825 -0.3268  0.6501
  383SOL     MW 1532   0.562   0.015   0.286  0.2631 -0.4113  0.1038
  384SOL     OW 1533   0.723   2.944   0.572  0.2491  0.6215 -0.4492
  384SOL    HW1 1534   0.791   2.929   0.642  1.6697  1.4832  1.7031
  384SOL    HW2 1535   0.670   2.858   0.583  0.3480 -1.3656 -0.3158
  384SOL     MW 1536   0.725   2.931   0.583  0.4496  0.4730 -0.1476
  385SOL     OW 1537   1.404   2.064   1.514 -0.1098 -0.4445  0.4710
  385SOL    HW1 1538   1.479   2.100   1.564 -0.1775  0.8726  1.7135
  385SOL    HW2 1539   1.365   1.986   1.565 -1.1165 -1.6170 -0.1665
  385SOL     MW 1540   1.409   2.058   1.527 -0.2516 -0.4254  0.5508
  386SOL     OW 1541   1.243   0.391   0.857  0.0523 -0.0961 -0.5527
  386SOL    HW1 1542   1.201   0.446   0.928  2.2573 -0.0197 -0.1629
  386SOL    HW2 1543   1.288   0.321   0.904  0.8425  2.4171 -0.0253
  386SOL     MW 1544   1.243   0.389   0.872  0.4475  0.2456 -0.4317
  387SOL     OW 1545   0.817   2.225   1.536 -0.0453  0.1705 -0.5967
  387SOL    HW1 1546   0.898   2.277   1.507 -1.6677 -1.4656  0.2972
  387SOL    HW2 1547   0.835   2.144   1.486  2.9356 -1.5795  2.2082
  387SOL     MW 1548   0.830   2.221   1.525  0.1339 -0.2763 -0.1086
  388SOL     OW 1549   1.485   2.807   1.264 -0.2255  0.2017  0.1286
  388SOL    HW1 1550   1.396   2.809   1.236  1.2146 -4.4603  3.8398
  388SOL    HW2 1551   1.516   2.728   1.220 -2.6620  1.5010 -0.4169
  388SOL     MW 1552   1.477   2.797   1.255 -0.3570 -0.2420  0.5462
  389SOL     OW 1553   0.465   0.161   3.026  0.8753  0.7101 -0.3723
  389SOL    HW1 1554   0.550   0.124   3.014  0.3044 -1.3027  1.4341
  389SOL    HW2 1555   0.448   0.208   2.950 -2.7321  2.0239  0.2169
  389SOL     MW 1556   0.474   0.162   3.015  0.3240  0.6178 -0.0562
  390SOL     OW 1557   1.344   0.042   0.742 -0.3667 -0.2982 -0.3144
  390SOL    HW1 1558   1.399   0.052   0.668  1.9811  1.4006  2.0182
  390SOL    HW2 1559   1.378   0.091   0.818  0.2285 -0.3416 -1.5709
  390SOL     MW 1560   1.355   0.050   0.742  0.0216 -0.0798 -0.1724
  391SOL     OW 1561   0.369   2.203   1.449  0.1609 -0.3982  0.3598
  391SOL    HW1 1562   0.339   2.115   1.470 -1.2832  1.1580 -0.0985
  391SOL    HW2 1563   0.292   2.263   1.451 -1.0196  0.8664 -0.0276
  391SOL     MW 1564   0.355   2.199   1.452 -0.1854 -0.0260  0.2482
  392SOL     OW 1565   2.055   2.218   0.306  0.4162 -0.0683 -1.2954
  392SOL    HW1 1566   2.122   2.167   0.348  1.4968 -0.5502 -2.1482
  392SOL    HW2 1567   2.009   2.258   0.385  1.1330  0.9502  1.5922
  392SOL     MW 1568   2.058   2.217   0.322  0.6534  0.0025 -1.0269
  393SOL     OW 1569   0.287   2.918   2.770 -0.1398 -0.0386 -0.0689
  393SOL    HW1 1570   0.375   2.930   2.742 -2.6992  1.4962  0.2372
  393SOL    HW2 1571   0.263   2.998   2.817  1.7612 -0.3460 -0.6302
  393SOL     MW 1572   0.295   2.930   2.772 -0.2267  0.1233 -0.1026
  394SOL     OW 1573   0.910   1.742   1.527  0.6920 -0.0585  0.0891
  394SOL    HW1 1574   0.882   1.731   1.622  0.8738 -1.0614  0.1641
  394SOL    HW2 1575   0.882   1.834   1.507 -1.6375 -1.1128  1.5177
  394SOL     MW 1576   0.902   1.753   1.537  0.4086 -0.3299  0.2874
  395SOL     OW 1577   0.950   2.936   2.586 -0.1961  0.6209 -0.6881
  395SOL    HW1 1578   0.986   2.981   2.659 -1.1499  0.6169 -0.3460
  395SOL    HW2 1579   1.023   2.888   2.551  0.0242  0.0719 -1.2139
  395SOL     MW 1580   0.964   2.935   2.591 -0.2929  0.5479 -0.7123
  396SOL     OW 1581   0.684   1.855   2.398  0.1676 -0.1787  0.5205
  396SOL    HW1 1582   0.754   1.901   2.450 -0.3320 -0.4776  0.0454
  396SOL    HW2 1583   0.704   1.765   2.398 -0.8525 -0.1366 -0.9644
  396SOL     MW 1584   0.696   1.849   2.405 -0.0329 -0.2126  0.2619
  397SOL     OW 1585   1.043   2.368   1.422 -0.0612 -0.2237  0.3514
  397SOL    HW1 1586   1.063   2.391   1.329  0.9275  0.1334 -1.3786
  397SOL    HW2 1587   1.126   2.349   1.466 -0.5716 -2.0021  2.6831
  397SOL     MW 1588   1.056   2.369   1.416  0.0019 -0.4112  0.4308
  398SOL     OW 1589   0.608   2.701   0.652  0.3888 -0.3932 -0.4703
  398SOL    HW1 1590   0.526   2.683   0.612  3.6333 -0.5526 -1.0920
  398SOL    HW2 1591   0.660   2.623   0.646 -2.1699 -1.6816  0.2258
  398SOL     MW 1592   0.604   2.688   0.646  0.4793 -0.5842 -0.4605
  399SOL     OW 1593   0.217   2.109   0.291 -0.2735  0.4054  0.3674
  399SOL    HW1 1594   0.142   2.166   0.306  1.0629 -0.1414  0.9605
  399SOL    HW2 1595   0.250   2.116   0.206  0.4110 -1.6371  1.0158
  399SOL     MW 1596   0.211   2.118   0.282 -0.0068  0.0638  0.5312
  400SOL     OW 1597   0.556   1.955   0.059  0.4141  0.6382 -0.5099
  400SOL    HW1 1598   0.487   2.016   0.056  0.1237 -1.0207  0.2790
  400SOL    HW2 1599   0.538   1.905   0.136  0.7478 -2.2454 -2.2567
  400SOL     MW 1600   0.544   1.956   0.069  0.4198  0.0389 -0.6363
  401SOL     OW 1601   0.796   2.070   0.083  0.1606  0.3160  0.2728
  401SOL    HW1 1602   0.856   1.995   0.071 -0.2306  1.7539  1.1089
  401SOL    HW2 1603   0.707   2.030   0.078 -2.2794  3.2002  0.2090
  401SOL     MW 1604   0.792   2.055   0.081 -0.2129  0.8863  0.3747
  402SOL     OW 1605   0.564   2.979   1.753 -0.2896  0.5482 -0.2353
  402SOL    HW1 1606   0.645   2.952   1.803  2.8759 -1.0676 -0.2561
  402SOL    HW2 1607   0.588   3.057   1.707 -0.6611 -0.1327  1.4381
  402SOL     MW 1608   0.578   2.986   1.754  0.0791  0.2452 -0.0173
  403SOL     OW 1609   0.097   0.413   0.392  0.5195 -0.4832  0.2652
  403SOL    HW1 1610   0.172   0.452   0.436  0.3470  0.7978 -2.1906
  403SOL    HW2 1611   0.114   0.428   0.295  0.3717  1.3806 -0.5982
  403SOL     MW 1612   0.109   0.420   0.385  0.4773 -0.0683 -0.1727
  404SOL     OW 1613   0.948   2.931   0.728  0.0018  0.4859  0.3906
  404SOL    HW1 1614   1.012   2.875   0.678 -1.4688 -0.7064 -1.0453
  404SOL    HW2 1615   0.969   3.027   0.706 -2.1873  1.1189 -1.2869
  404SOL     MW 1616   0.959   2.936   0.718 -0.4811  0.4121 -0.0202
  405SOL     OW 1617   0.541   2.401   1.524 -0.5464 -0.1182 -0.0169
  405SOL    HW1 1618   0.536   2.425   1.433 -1.3961  0.2372  1.0794
  405SOL    HW2 1619   0.468   2.339   1.521 -1.9937 -1.6621 -1.3933
  405SOL     MW 1620   0.531   2.396   1.512 -0.8495 -0.2750 -0.0538
  406SOL     OW 1621   0.343   2.408   1.088  0.2082  0.0223 -0.2228
  406SOL    HW1 1622   0.258   2.420   1.137 -0.9494  1.4824 -0.7214
  406SOL    HW2 1623   0.371   2.317   1.108  0.5674 -0.0716  2.2090
  406SOL     MW 1624   0.335   2.398   1.097  0.1029  0.2025  0.0323
  407SOL     OW 1625   0.041   2.702   1.158 -0.2620 -0.1598  0.0032
  407SOL    HW1 1626   0.120   2.675   1.216  2.6798 -2.5667 -0.2108
  407SOL    HW2 1627   0.083   2.707   1.071  0.2345 -0.1623  1.0619
  407SOL     MW 1628   0.057   2.699   1.154  0.1917 -0.4777  0.1146
  408SOL     OW 1629   2.137   2.127   0.592 -0.0216 -0.1464 -0.0315
  408SOL    HW1 1630   2.096   2.176   0.668  3.6500 -1.0020  3.8750
  408SOL    HW2 1631   2.073   2.054   0.603 -1.7023  0.6987  2.5911
  408SOL     MW 1632   2.123   2.124   0.604  0.2410 -0.1478  0.8300
  409SOL     OW 1633   1.451   0.147   0.961 -0.0588 -0.0596  0.3659
  409SOL    HW1 1634   1.523   0.211   0.978  0.7225  1.9507  0.2710
  409SOL    HW2 1635   1.494   0.059   0.962 -2.9887 -1.0452  0.4762
  409SOL     MW 1636   1.466   0.144   0.963 -0.3423  0.0756  0.3679
  410SOL     OW 1637   1.103   2.424   1.151 -0.2750 -0.0617  0.1034
  410SOL    HW1 1638   1.021   2.424   1.111  2.4243 -0.5880  0.2112
  410SOL    HW2 1639   1.150   2.372   1.089  0.0790 -1.3777  1.8815
  410SOL     MW 1640   1.098   2.417   1.138  0.1278 -0.3048  0.3522
  411SOL     OW 1641   1.920   0.018   2.888  0.1348 -0.5275  0.0848
  411SOL    HW1 1642   1.859  -0.005   2.817 -1.9897 -0.7917  1.6092
  411SOL    HW2 1643   1.865   0.055   2.957  0.9592  2.4136  0.4376
  411SOL     MW 1644   1.905   0.020   2.888 -0.0368 -0.1743  0.3325
  412SOL     OW 1645   1.068   2.233   0.580 -0.0618  0.3982  0.7658
  412SOL    HW1 1646   1.114   2.312   0.621 -1.4722 -0.7012  1.0538
  412SOL    HW2 1647   0.991   2.264   0.538  2.1836  0.2912  4.8713
  412SOL     MW 1648   1.064   2.248   0.580  0.0484  0.2391  1.3455
  413SOL     OW 1649   0.540   2.725   0.005  0.3134 -0.3108  0.9338
  413SOL    HW1 1650   0.619   2.672   0.017 -3.4312  0.4961 -2.7389
  413SOL    HW2 1651   0.569   2.784  -0.058 -0.0166 -0.3848  3.9699
  413SOL     MW 1652   0.554   2.726  -0.001 -0.2242 -0.2141  0.8498
  414SOL     OW 1653   1.993   3.014   1.156  0.5482  0.3505  0.2736
  414SOL    HW1 1654   1.912   3.080   1.158 -3.3294  0.0526 -1.1895
  414SOL    HW2 1655   2.015   3.018   1.061  0.4010 -0.9587  0.0549
  414SOL     MW 1656   1.985   3.024   1.143  0.0171  0.1384  0.0517
  415SOL     OW 1657   1.794   2.756   1.095 -0.2352  0.7780 -0.3844
  415SOL    HW1 1658   1.784   2.732   1.186  0.3124  1.6492  0.6174
  415SOL    HW2 1659   1.834   2.842   1.097 -2.5321  0.8177 -1.0504
  415SOL     MW 1660   1.798   2.764   1.107 -0.4660  0.8982 -0.3401
  416SOL     OW 1661   0.557   1.978   1.338  0.5608 -0.9834  0.2961
  416SOL    HW1 1662   0.526   2.020   1.254  2.5557  0.6805 -0.3219
  416SOL    HW2 1663   0.542   1.879   1.335  0.7673  0.5078  0.5543
  416SOL     MW 1664   0.551   1.970   1.327  0.8513 -0.5671  0.2487
  417SOL     OW 1665   1.001   2.996   2.053  0.1568 -0.0190  0.1929
  417SOL    HW1 1666   0.955   3.012   2.132  0.1599 -4.5506 -2.4970
  417SOL    HW2 1667   0.946   2.956   1.985 -0.4198  1.9491 -1.8268
  417SOL     MW 1668   0.987   2.993   2.055  0.0811 -0.3572 -0.4285
  418SOL     OW 1669   0.685   2.916   0.155  0.0341  0.1486  0.3038
  418SOL    HW1 1670   0.752   2.907   0.086  1.5016 -0.2419  0.3755
  418SOL    HW2 1671   0.612   2.858   0.129  2.4189 -2.3130  0.3966
  418SOL     MW 1672   0.685   2.908   0.143  0.5424 -0.2277  0.3255
  419SOL     OW 1673   0.503   2.633   1.309  0.4040 -0.0580 -0.2044
  419SOL    HW1 1674   0.541   2.710   1.357 -1.1929  2.4162  2.9492
  419SOL    HW2 1675   0.573   2.612   1.246  0.1585 -1.7067 -0.6945
  419SOL     MW 1676   0.517   2.641   1.307  0.1609  0.0509  0.1470
  420SOL     OW 1677   0.802   2.217   1.051 -0.1554 -0.0237  0.0725
  420SOL    HW1 1678   0.738   2.220   1.121 -0.9491 -1.1722 -1.0294
  420SOL    HW2 1679   0.820   2.311   1.042 -2.2436  3.2783  2.8300
  420SOL     MW 1680   0.796   2.230   1.059 -0.5356  0.2604  0.2910
  421SOL     OW 1681   2.983   0.201   3.065 -0.5329 -0.0161  0.5685
  421SOL    HW1 1682   2.903   0.173   3.023  1.9108  3.1200  0.0884
  421SOL    HW2 1683   3.024   0.116   3.083 -1.0762  0.8399  0.1751
  421SOL     MW 1684   2.978   0.186   3.062 -0.2822  0.5106  0.4532
  422SOL     OW 1685   0.867   2.472   0.960 -0.5621 -0.2302  0.3251
  422SOL    HW1 1686   0.854   2.567   0.981  0.8061 -1.6944 -0.5470
  422SOL    HW2 1687   0.840   2.467   0.870 -0.5559 -2.0386  0.3292
  422SOL     MW 1688   0.862   2.484   0.951 -0.3808 -0.6620  0.2106
  423SOL     OW 1689   1.468   0.068   0.488  0.6128  0.1291  0.1385
  423SOL    HW1 1690   1.496   0.043   0.400 -0.3211  0.2488  0.7955
  423SOL    HW2 1691   1.485   0.158   0.497 -0.0735 -2.9951  0.9420
  423SOL     MW 1692   1.474   0.077   0.477  0.3990 -0.2673  0.3312
  424SOL     OW 1693   0.665   2.283   1.280 -0.2315 -0.1956  0.6272
  424SOL    HW1 1694   0.580   2.258   1.256  3.2965 -1.7307  0.0540
  424SOL    HW2 1695   0.685   2.248   1.367  2.0008 -0.7880 -0.1870
  424SOL     MW 1696   0.656   2.275   1.288  0.5285 -0.4763  0.4441
  425SOL     OW 1697   1.711   2.761   2.073  0.1388 -0.1516  0.2483
  425SOL    HW1 1698   1.731   2.785   1.977 -0.0059 -2.0853  0.4401
  425SOL    HW2 1699   1.756   2.670   2.078  0.4169 -1.2860 -0.5659
  425SOL     MW 1700   1.719   2.752   2.061  0.1564 -0.5564  0.1662
  426SOL     OW 1701   0.854   1.688   1.952 -0.1625  0.5871 -0.7572
  426SOL    HW1 1702   0.807   1.721   1.874  1.9064 -3.0945  1.0159
  426SOL    HW2 1703   0.855   1.763   2.017  0.7933  0.4930 -1.8457
  426SOL     MW 1704   0.848   1.702   1.950  0.2366  0.0889 -0.6669
  427SOL     OW 1705   0.371   1.705   1.862  0.0569  0.7460  0.0494
  427SOL    HW1 1706   0.413   1.653   1.798  0.4454  2.5199  1.0882
  427SOL    HW2 1707   0.305   1.649   1.908 -1.8841 -1.3743 -0.1449
  427SOL     MW 1708   0.368   1.691   1.859 -0.1479  0.7003  0.1608
  428SOL     OW 1709   0.544   2.564   1.018 -0.0130  0.1839  0.4763
  428SOL    HW1 1710   0.598   2.488   0.987  0.9780 -1.1245 -2.5472
  428SOL    HW2 1711   0.459   2.516   1.049  0.0448 -1.7524  1.3632
  428SOL     MW 1712   0.540   2.547   1.018  0.1254 -0.2442  0.1944
  429SOL     OW 1713   1.241   2.822   1.139 -0.0456  0.2255 -0.1460
  429SOL    HW1 1714   1.159   2.781   1.172 -2.8399  1.5873 -0.4718
  429SOL    HW2 1715   1.220   2.862   1.055  0.2194 -1.2318 -0.5458
  429SOL     MW 1716   1.227   2.822   1.132 -0.3793  0.2129 -0.2417
  430SOL     OW 1717   1.153   2.727   0.694 -0.2716 -0.5539 -0.7805
  430SOL    HW1 1718   1.180   2.645   0.739  1.7140 -0.5532  0.3266
  430SOL    HW2 1719   1.083   2.706   0.627 -3.2734 -0.8434 -2.2367
  430SOL     MW 1720   1.148   2.713   0.691 -0.4057 -0.5920 -0.8266
  431SOL     OW 1721   0.310   1.971   1.044 -0.3828 -0.2487  0.2902
  431SOL    HW1 1722   0.381   1.902   1.042  3.8938  2.4096 -0.3476
  431SOL    HW2 1723   0.295   1.991   0.949  1.0950 -1.0758  2.2996
  431SOL     MW 1724   0.317   1.964   1.031  0.3764 -0.0071  0.4712
  432SOL     OW 1725   0.091   0.049   1.184  0.2258 -0.1478 -0.3084
  432SOL    HW1 1726   0.061   0.130   1.223  0.4039 -0.1473 -2.2990
  432SOL    HW2 1727   0.020  -0.014   1.197  3.4532 -1.7155 -1.1726
  432SOL     MW 1728   0.078   0.051   1.191  0.6751 -0.3546 -0.6850
  433SOL     OW 1729   0.616   2.838   1.477  0.2907  0.6447 -0.2292
  433SOL    HW1 1730   0.571   2.859   1.557 -1.8086  0.1983  0.8513
  433SOL    HW2 1731   0.685   2.780   1.501 -3.2938  0.7235 -1.0307
  433SOL     MW 1732   0.619   2.833   1.491 -0.4592  0.5962 -0.1924
  434SOL     OW 1733   1.570   2.760   1.543  0.2862  0.2280  0.6169
  434SOL    HW1 1734   1.479   2.781   1.515  0.5702  0.3540  0.8499
  434SOL    HW2 1735   1.608   2.741   1.458 -0.1389  1.5679  0.6085
  434SOL     MW 1736   1.563   2.760   1.528  0.2676  0.4214  0.6465
  435SOL     OW 1737   2.806   1.800   0.191 -0.5452 -0.5427 -0.5480
  435SOL    HW1 1738   2.867   1.874   0.163 -1.7860  0.9686  0.9446
  435SOL    HW2 1739   2.765   1.781   0.108  1.7069 -0.3252  3.7470
  435SOL     MW 1740   2.809   1.807   0.176 -0.4118 -0.3146  0.2156
  436SOL     OW 1741   1.392   2.659   0.419  0.5901  0.2978  0.2600
  436SOL    HW1 1742   1.432   2.660   0.508  0.8017 -1.1907 -0.6905
  436SOL    HW2 1743   1.365   2.750   0.409  1.1293 -4.0722  0.0021
  436SOL     MW 1744   1.394   2.671   0.429  0.6892 -0.4752  0.1006
  437SOL     OW 1745   0.901   2.994   1.335 -0.1251 -0.1260  0.4046
  437SOL    HW1 1746   0.972   3.056   1.320 -1.7239  0.3496  0.4992
  437SOL    HW2 1747   0.911   2.920   1.275  2.5425  0.7625  1.1846
  437SOL     MW 1748   0.911   2.992   1.325  0.0159  0.0540  0.5200
  438SOL     OW 1749   0.806   2.594   1.910 -0.1465  0.4265 -0.4079
  438SOL    HW1 1750   0.818   2.559   2.003 -0.4461 -0.9263  0.2231
  438SOL    HW2 1751   0.752   2.527   1.872  0.6994  1.1675  2.5285
  438SOL     MW 1752   0.800   2.581   1.917 -0.0744  0.3458  0.0628
  439SOL     OW 1753   1.223   2.108   0.400 -0.3728 -0.2487 -0.7311
  439SOL    HW1 1754   1.173   2.145   0.477  1.5787 -0.7660 -0.8712
  439SOL    HW2 1755   1.211   2.183   0.336 -1.8063  3.1211  1.0225
  439SOL     MW 1756   1.215   2.123   0.402 -0.3044  0.1276 -0.5182
  440SOL     OW 1757   1.725   2.987   3.058 -0.4101 -0.4192 -0.0876
  440SOL    HW1 1758   1.671   2.940   3.125 -0.6286  1.3207  1.9019
  440SOL    HW2 1759   1.817   2.971   3.074  0.9126  0.9620 -1.5539
  440SOL     MW 1760   1.730   2.979   3.069 -0.2644 -0.0074 -0.0186
  441SOL     OW 1761   0.375   2.688   0.496  0.3085  0.8883 -0.1945
  441SOL    HW1 1762   0.343   2.641   0.415 -1.2035 -1.4303 -0.2103
  441SOL    HW2 1763   0.411   2.771   0.473  0.6405 -0.3679 -1.4235
  441SOL     MW 1764   0.375   2.692   0.482  0.1528  0.4166 -0.3587
  442SOL     OW 1765   3.055   2.355   0.581 -0.1475  0.1152 -0.0711
  442SOL    HW1 1766   3.054   2.453   0.561  0.1905 -1.8593  1.4397
  442SOL    HW2 1767   2.982   2.327   0.636  0.8060 -1.3237  1.2206
  442SOL     MW 1768   3.045   2.364   0.586  0.0229 -0.3352  0.2987
  443SOL     OW 1769   1.478   1.763   1.955  0.2866  0.4912 -0.1260
  443SOL    HW1 1770   1.398   1.747   1.906 -1.0316 -2.7312  3.0086
  443SOL    HW2 1771   1.507   1.687   2.009  1.6771  1.7628  1.3555
  443SOL     MW 1772   1.471   1.751   1.956  0.2961  0.2338  0.4831
  444SOL     OW 1773   0.882   2.572   1.575 -0.1836  0.3786 -0.1867
  444SOL    HW1 1774   0.969   2.537   1.565  0.4895 -2.0203 -0.0951
  444SOL    HW2 1775   0.850   2.520   1.648  0.8520 -0.6450 -0.1805
  444SOL     MW 1776   0.889   2.561   1.584  0.0419 -0.0730 -0.1738
  445SOL     OW 1777   1.118   0.077   1.331  0.2015  0.6597  0.3994
  445SOL    HW1 1778   1.065   0.126   1.392  0.2439 -1.3859  0.2771
  445SOL    HW2 1779   1.137   0.153   1.275  3.2322  2.9891  1.2752
  445SOL     MW 1780   1.114   0.093   1.331  0.6069  0.6971  0.4988
  446SOL     OW 1781   2.773   2.866   1.077  0.3536 -0.1674 -0.6120
  446SOL    HW1 1782   2.712   2.901   1.014 -1.8261 -1.8010  0.6091
  446SOL    HW2 1783   2.822   2.796   1.031 -0.7408 -0.8947 -1.9307
  446SOL     MW 1784   2.772   2.861   1.063 -0.0784 -0.4789 -0.6249
  447SOL     OW 1785   0.044   1.993   1.646  0.3918  0.0137  0.2297
  447SOL    HW1 1786   0.081   1.909   1.684  2.0127 -0.3566 -1.3979
  447SOL    HW2 1787  -0.029   1.954   1.589 -0.1601  0.2079 -0.7655
  447SOL     MW 1788   0.039   1.977   1.644  0.5329 -0.0096 -0.1164
  448SOL     OW 1789   1.748   2.413   1.673 -0.0027  0.2073 -0.4008
  448SOL    HW1 1790   1.709   2.330   1.638  2.0059 -0.8249  0.7124
  448SOL    HW2 1791   1.675   2.469   1.682  0.4377  2.0333  0.8067
  448SOL     MW 1792   1.733   2.409   1.670  0.3204  0.3120 -0.0946
  449SOL     OW 1793   0.878   2.879   0.344  0.8114 -0.4708 -0.1452
  449SOL    HW1 1794   0.810   2.865   0.275  0.1325 -1.0511 -1.3556
  449SOL    HW2 1795   0.817   2.905   0.412  3.3905 -2.3798  0.0157
  449SOL     MW 1796   0.861   2.881   0.344  1.0621 -0.7993 -0.2837
  450SOL     OW 1797   1.171   2.440   0.708 -0.2217  0.3253  0.0291
  450SOL    HW1 1798   1.186   2.406   0.798  0.1311 -0.3549 -0.0281
  450SOL    HW2 1799   1.259   2.441   0.673  1.4114 -1.9403 -2.1997
  450SOL     MW 1800   1.184   2.436   0.715  0.0403 -0.0633 -0.2725
  451SOL     OW 1801   0.567   1.997   1.656  0.3540 -0.5843  0.4050
  451SOL    HW1 1802   0.631   2.050   1.611  0.6655  0.0562 -0.5053
  451SOL    HW2 1803   0.501   1.988   1.594  0.2559  1.6103 -0.1612
  451SOL     MW 1804   0.567   2.003   1.642  0.3822 -0.2102  0.2102
  452SOL     OW 1805   0.273   2.667   0.053  0.0111 -0.2455  0.0630
  452SOL    HW1 1806   0.362   2.689   0.035  0.7160  1.7973  2.4636
  452SOL    HW2 1807   0.218   2.711  -0.017  1.1843  1.8043 -2.7110
  452SOL     MW 1808   0.277   2.676   0.041  0.2589  0.2945  0.0137
  453SOL     OW 1809   0.337   3.004   1.615 -0.0628  0.4312  0.2850
  453SOL    HW1 1810   0.401   2.969   1.676 -2.3066  0.4452 -0.7467
  453SOL    HW2 1811   0.378   3.032   1.527 -0.4218  0.3361 -0.0089
  453SOL     MW 1812   0.351   3.003   1.611 -0.4062  0.4205  0.1101
  454SOL     OW 1813   0.983   2.776   1.205  0.1977 -1.3015 -0.0229
  454SOL    HW1 1814   0.930   2.717   1.256 -2.0312  0.7206 -2.1426
  454SOL    HW2 1815   0.949   2.781   1.115 -2.8326  1.9502 -0.6115
  454SOL     MW 1816   0.972   2.769   1.200 -0.4962 -0.6057 -0.3802
  455SOL     OW 1817   1.599   2.854   0.182 -0.0463 -0.2987  0.7882
  455SOL    HW1 1818   1.662   2.853   0.257 -0.3928  0.3276  0.6097
  455SOL    HW2 1819   1.588   2.759   0.179  0.0000 -1.2330  0.9608
  455SOL     MW 1820   1.606   2.841   0.192 -0.0859 -0.3393  0.7874
  456SOL     OW 1821   2.732   0.314   1.534  0.0762 -0.3527  0.6274
  456SOL    HW1 1822   2.725   0.245   1.467 -2.1245 -1.1697 -1.2942
  456SOL    HW2 1823   2.795   0.369   1.486  1.9984  0.6629 -3.0610
  456SOL     MW 1824   2.739   0.312   1.519  0.0395 -0.3265 -0.1128
  457SOL     OW 1825   0.896   1.593   3.051 -0.5817  0.0271  0.4539
  457SOL    HW1 1826   0.802   1.593   3.073  0.3657 -1.3218  0.4344
  457SOL    HW2 1827   0.938   1.577   3.137  2.8746  0.9656  0.9806
  457SOL     MW 1828   0.889   1.591   3.065 -0.0007 -0.0271  0.5208
  458SOL     OW 1829   1.388   1.454   0.580  0.4905 -0.3402  0.2795
  458SOL    HW1 1830   1.331   1.529   0.579 -0.8797 -2.9124  1.3461
  458SOL    HW2 1831   1.373   1.411   0.494  1.8684 -0.5400  0.8893
  458SOL     MW 1832   1.379   1.458   0.568  0.4915 -0.7059  0.5007
  459SOL     OW 1833   1.500   0.027   0.225  0.7126  0.0395 -0.2357
  459SOL    HW1 1834   1.494  -0.069   0.217 -0.4431  0.8533  1.4931
  459SOL    HW2 1835   1.451   0.060   0.150 -1.3689 -0.0611 -0.8901
  459SOL     MW 1836   1.493   0.019   0.214  0.2855  0.1336 -0.0940
  460SOL     OW 1837   1.786   2.149   0.626 -0.1950  0.3928  0.2160
  460SOL    HW1 1838   1.707   2.147   0.686 -0.2261 -2.2507 -0.1464
  460SOL    HW2 1839   1.806   2.058   0.617  1.8123  0.9185  0.5320
  460SOL     MW 1840   1.778   2.137   0.632  0.0658  0.1134  0.2099
  461SOL     OW 1841   0.417   2.396   0.561  0.4852  0.1127  0.1965
  461SOL    HW1 1842   0.402   2.454   0.482  0.1379 -0.3342 -1.5914
  461SOL    HW2 1843   0.367   2.444   0.632  0.0451  0.7545  1.5896
  461SOL     MW 1844   0.409   2.410   0.560  0.3813  0.1384  0.1444
  462SOL     OW 1845   0.324   0.257   1.259 -0.0973  0.3366 -0.6269
  462SOL    HW1 1846   0.334   0.205   1.181  2.0221 -1.5284 -0.9219
  462SOL    HW2 1847   0.418   0.267   1.292 -0.4146 -0.2982  1.7831
  462SOL     MW 1848   0.338   0.252   1.253  0.1405  0.0068 -0.3478
  463SOL     OW 1849   0.979   0.101   0.681 -0.0446  0.0092  0.3384
  463SOL    HW1 1850   1.017   0.112   0.590  0.6400  1.1251 -0.5022
  463SOL    HW2 1851   0.877   0.097   0.673  0.2355  0.2893  0.4229
  463SOL     MW 1852   0.971   0.102   0.668  0.0827  0.1934  0.2386
  464SOL     OW 1853   0.770   3.045   2.242 -0.0569 -0.6323 -0.5894
  464SOL    HW1 1854   0.772   2.951   2.247  0.5201 -0.3406 -0.8509
  464SOL    HW2 1855   0.771   3.083   2.329 -0.0492  1.5437 -2.7263
  464SOL     MW 1856   0.770   3.038   2.254  0.0202 -0.3067 -0.9058
  465SOL     OW 1857   0.847   0.276   0.473 -0.3165 -0.1598 -0.1019
  465SOL    HW1 1858   0.784   0.236   0.538 -0.1071  1.4080 -0.3780
  465SOL    HW2 1859   0.793   0.266   0.390  0.9911 -0.9016 -2.0011
  465SOL     MW 1860   0.831   0.269   0.471 -0.1163 -0.0508 -0.3889
  466SOL     OW 1861   0.993   2.019   0.749  0.2320 -0.2112  0.8376
  466SOL    HW1 1862   1.000   1.939   0.697  0.9432 -0.2471  0.9757
  466SOL    HW2 1863   1.000   2.097   0.689 -1.4972 -0.8407  1.0544
  466SOL     MW 1864   0.995   2.018   0.734  0.0977 -0.2990  0.8844
  467SOL     OW 1865   1.241   2.287   0.952  0.2289  0.1530  0.2581
  467SOL    HW1 1866   1.333   2.311   0.972  2.2989 -3.2240 -0.8388
  467SOL    HW2 1867   1.244   2.188   0.938 -1.4568 -0.3133 -2.0727
  467SOL     MW 1868   1.253   2.277   0.953  0.2796 -0.3541 -0.1941
  468SOL     OW 1869   0.428   2.644   1.976  0.6379  0.0115 -0.8072
  468SOL    HW1 1870   0.399   2.572   1.921 -1.5327 -0.7851  1.0428
  468SOL    HW2 1871   0.426   2.722   1.918  0.4111  2.4320 -0.3384
  468SOL     MW 1872   0.424   2.644   1.961  0.3216  0.2258 -0.5013
  469SOL     OW 1873   0.373   2.134   1.859 -0.0262 -0.6688 -0.1157
  469SOL    HW1 1874   0.317   2.059   1.890 -0.1694 -1.4549 -0.6731
  469SOL    HW2 1875   0.433   2.094   1.803 -0.0055  0.0949 -0.7367
  469SOL     MW 1876   0.373   2.119   1.855 -0.0424 -0.6717 -0.2712
  470SOL     OW 1877   3.026   2.597   0.147  0.1923 -0.2071  0.6127
  470SOL    HW1 1878   2.946   2.575   0.203 -0.9688 -0.4949  0.0810
  470SOL    HW2 1879   2.995   2.610   0.057 -0.2908  0.8117  1.3750
  470SOL     MW 1880   3.012   2.596   0.142 -0.0246 -0.1106  0.6431
  471SOL     OW 1881   1.173   2.649   1.426 -0.2638 -0.2042 -0.3874
  471SOL    HW1 1882   1.157   2.613   1.513 -3.2180  1.0268  0.7174
  471SOL    HW2 1883   1.088   2.679   1.406  0.6813 -0.9781  1.1500
  471SOL     MW 1884   1.159   2.648   1.435 -0.5289 -0.1439 -0.0388
  472SOL     OW 1885   2.827   2.111   0.339  0.3392 -0.9238  0.0926
  472SOL    HW1 1886   2.866   2.082   0.256 -0.3354  2.3047  1.0918
  472SOL    HW2 1887   2.787   2.026   0.379 -2.8970 -1.5557  0.8718
  472SOL     MW 1888   2.827   2.096   0.333 -0.1768 -0.5812  0.3272
  473SOL     OW 1889   0.809   2.540   1.297 -0.2121  0.5260  0.5273
  473SOL    HW1 1890   0.805   2.449   1.277  0.1776 -0.1779  1.1369
  473SOL    HW2 1891   0.804   2.533   1.393  2.5599  2.6878  0.4938
  473SOL     MW 1892   0.808   2.527   1.307  0.2051  0.7184  0.6033
  474SOL     OW 1893   0.843   2.093   1.809 -0.5644  0.4599 -0.0846
  474SOL    HW1 1894   0.913   2.148   1.852  1.3441  1.9897 -0.2920
  474SOL    HW2 1895   0.868   2.097   1.716  1.6707  2.7644 -0.2043
  474SOL     MW 1896   0.856   2.101   1.802 -0.0177  0.9658 -0.1277
  475SOL     OW 1897   1.625   3.072   1.461 -0.7647 -0.1603  0.3163
  475SOL    HW1 1898   1.548   3.083   1.407 -0.7924 -0.5290 -0.7187
  475SOL    HW2 1899   1.594   3.012   1.527  0.0038  1.6401  1.0289
  475SOL     MW 1900   1.611   3.065   1.463 -0.6670  0.0286  0.2738
  476SOL     OW 1901   1.416   2.626   1.024 -0.3280  0.0806 -0.2201
  476SOL    HW1 1902   1.332   2.660   1.044  1.2695  0.9558 -1.1142
  476SOL    HW2 1903   1.451   2.688   0.963 -2.5317  1.5072 -0.4220
  476SOL     MW 1904   1.410   2.639   1.019 -0.4080  0.3843 -0.3647
  477SOL     OW 1905   0.798   2.482   0.662 -0.0907  0.0233 -0.1794
  477SOL    HW1 1906   0.874   2.521   0.615  0.6402  1.3673 -1.0127
  477SOL    HW2 1907   0.774   2.414   0.598 -1.9641 -1.9259  2.2598
  477SOL     MW 1908   0.805   2.478   0.647 -0.2414 -0.0566  0.0325
  478SOL     OW 1909   0.168   2.677   0.926 -0.1916  0.2465  0.0649
  478SOL    HW1 1910   0.202   2.757   0.887  2.2177  2.4827 -3.3115
  478SOL    HW2 1911   0.221   2.618   0.879 -1.0463  1.3237  0.1089
  478SOL     MW 1912   0.179   2.680   0.914  0.0135  0.6837 -0.3748
  479SOL     OW 1913   1.479   1.975   1.247  0.3310  0.0303  0.2042
  479SOL    HW1 1914   1.462   1.986   1.340 -0.0416  1.4545  1.6111
  479SOL    HW2 1915   1.520   1.887   1.229 -1.4914  1.2226 -0.5128
  479SOL     MW 1916   1.482   1.965   1.257  0.0414  0.3755  0.2952
  480SOL     OW 1917   1.933   2.405   1.269  0.6980  0.3288  0.0013
  480SOL    HW1 1918   1.890   2.342   1.332  1.2433  1.5102  3.2160
  480SOL    HW2 1919   1.956   2.352   1.191  0.4071 -2.5632  2.8842
  480SOL     MW 1920   1.930   2.390   1.267  0.7316  0.1031  0.8059
  481SOL     OW 1921   1.033  -0.000   1.029  0.3146 -0.2121  0.6217
  481SOL    HW1 1922   1.094  -0.018   0.959 -0.4172  0.4262  1.2163
  481SOL    HW2 1923   1.072   0.062   1.092  1.4575  0.0591  1.5744
  481SOL     MW 1924   1.046   0.006   1.028  0.3689 -0.0921  0.8258
  482SOL     OW 1925   1.079   3.023   0.278 -0.1686 -0.4851 -0.3783
  482SOL    HW1 1926   1.004   2.970   0.308 -0.9292  0.4166  3.8683
  482SOL    HW2 1927   1.067   3.114   0.312  1.6382  0.7919  1.1083
  482SOL     MW 1928   1.068   3.028   0.286 -0.0306 -0.1976  0.3781
  483SOL     OW 1929   0.420   2.956   0.449  0.5832 -0.6784  0.0185
  483SOL    HW1 1930   0.347   2.956   0.383  0.9465  0.2738 -2.1610
  483SOL    HW2 1931   0.376   3.008   0.519 -1.3387 -1.0751  0.9044
  483SOL     MW 1932   0.405   2.963   0.449  0.3776 -0.6051 -0.1522
  484SOL     OW 1933   1.796   1.895   1.461  0.7918  0.0822 -0.2566
  484SOL    HW1 1934   1.807   1.988   1.432 -0.2737  0.7523 -0.7515
  484SOL    HW2 1935   1.807   1.896   1.556 -1.3322 -2.5735  0.3565
  484SOL     MW 1936   1.799   1.908   1.470  0.3710 -0.1798 -0.2410
  485SOL     OW 1937   0.470   2.285   0.240  0.0249  0.4564 -0.5657
  485SOL    HW1 1938   0.461   2.240   0.330 -0.6933 -0.5969  1.7986
  485SOL    HW2 1939   0.429   2.371   0.247 -0.1279  1.2750 -3.5871
  485SOL     MW 1940   0.464   2.290   0.253 -0.0900  0.4254 -0.6524
  486SOL     OW 1941   0.203   2.407   1.490  0.3873 -0.1861 -0.5197
  486SOL    HW1 1942   0.197   2.482   1.432  2.7756 -0.3736 -1.4586
  486SOL    HW2 1943   0.174   2.435   1.579  0.0673 -2.0914 -1.2594
  486SOL     MW 1944   0.198   2.421   1.494  0.6602 -0.4622 -0.7412
  487SOL     OW 1945   1.222   1.664   1.013  0.1051  0.0319 -0.3569
  487SOL    HW1 1946   1.219   1.757   1.034  0.7792  1.9780 -0.6430
  487SOL    HW2 1947   1.308   1.665   0.959  1.4098 -0.0472 -0.4662
  487SOL     MW 1948   1.233   1.677   1.009  0.3662  0.2782 -0.4091
  488SOL     OW 1949   1.657   1.865   0.512 -0.1173  0.4945  0.7090
  488SOL    HW1 1950   1.732   1.898   0.455  2.8510  2.5579 -0.1073
  488SOL    HW2 1951   1.587   1.936   0.495 -0.5615  0.5751  2.4878
  488SOL     MW 1952   1.658   1.879   0.502  0.2157  0.7774  0.8360
  489SOL     OW 1953   0.689   0.779   0.573  0.6380  0.5194 -0.5153
  489SOL    HW1 1954   0.741   0.695   0.563 -0.5228 -1.3287  0.6013
  489SOL    HW2 1955   0.692   0.783   0.667 -0.0226 -3.0821 -0.9049
  489SOL     MW 1956   0.696   0.769   0.584  0.3977 -0.1996 -0.4194
  490SOL     OW 1957   1.488   2.063   0.461 -0.0706 -0.3707  0.2524
  490SOL    HW1 1958   1.543   2.137   0.430  0.0540  1.9576 -2.3284
  490SOL    HW2 1959   1.397   2.081   0.428  1.5267 -0.1125 -0.1709
  490SOL     MW 1960   1.483   2.075   0.453  0.1566 -0.0294 -0.1440
  491SOL     OW 1961   1.324   2.942   0.361  0.8020  0.1209 -0.4969
  491SOL    HW1 1962   1.337   3.005   0.435 -3.0767  1.1803 -1.0952
  491SOL    HW2 1963   1.234   2.969   0.330 -1.0565 -1.2426  1.2992
  491SOL     MW 1964   1.314   2.954   0.367  0.0451  0.0807 -0.3388
  492SOL     OW 1965   1.504   2.076   0.748  0.0230  0.2069  0.1667
  492SOL    HW1 1966   1.470   2.086   0.655  0.0381 -0.1263  0.8462
  492SOL    HW2 1967   1.428   2.069   0.801 -0.2934 -0.1239 -1.2055
  492SOL     MW 1968   1.489   2.076   0.742 -0.0168  0.1193  0.0753
  493SOL     OW 1969   0.211   3.006   0.273 -0.2724 -0.0051  0.0224
  493SOL    HW1 1970   0.156   3.052   0.335 -0.1333  1.8764 -1.0084
  493SOL    HW2 1971   0.214   3.059   0.194 -2.0008  0.4734 -0.3426
  493SOL     MW 1972   0.204   3.019   0.271 -0.4821  0.3063 -0.1617
  494SOL     OW 1973   0.402   2.437   1.781  0.2091 -0.2776 -0.5026
  494SOL    HW1 1974   0.438   2.348   1.803 -0.9192 -0.5608 -1.5680
  494SOL    HW2 1975   0.450   2.455   1.699 -1.0093 -1.8571  1.8498
  494SOL     MW 1976   0.413   2.428   1.773 -0.1006 -0.5234 -0.3328
  495SOL     OW 1977   2.944   1.661   2.606  0.3531 -0.5341  0.5589
  495SOL    HW1 1978   2.936   1.753   2.569  0.2222  2.3123  1.0259
  495SOL    HW2 1979   2.893   1.655   2.683  2.2327  0.9925 -0.8506
  495SOL     MW 1980   2.936   1.672   2.611  0.5838  0.0429  0.4346
  496SOL     OW 1981   2.930   2.314   2.685  0.4981  0.1932  0.3428
  496SOL    HW1 1982   2.985   2.256   2.731  1.0872 -0.4186  0.1042
  496SOL    HW2 1983   2.994   2.370   2.645  0.7507  3.5712 -2.5996
  496SOL     MW 1984   2.945   2.314   2.686  0.6091  0.5581 -0.0769
  497SOL     OW 1985   1.511   2.280   2.646  0.6873  0.7408  0.1141
  497SOL    HW1 1986   1.509   2.245   2.559  0.9910  0.6942  0.4268
  497SOL    HW2 1987   1.475   2.212   2.701 -1.2860  0.7855 -1.4578
  497SOL     MW 1988   1.506   2.267   2.642  0.4670  0.7405 -0.0520
  498SOL     OW 1989   1.523   2.747   2.356 -0.4100  0.3575 -0.2656
  498SOL    HW1 1990   1.515   2.653   2.332 -4.1948 -3.0314  0.0767
  498SOL    HW2 1991   1.607   2.750   2.405  0.1673 -2.1572 -2.6144
  498SOL     MW 1992   1.533   2.735   2.359 -0.8332 -0.4214 -0.5304
  499SOL     OW 1993   0.926   0.086   0.088 -0.0793  0.0717  0.1500
  499SOL    HW1 1994   0.844   0.107   0.137  2.1129  0.5996 -0.2579
  499SOL    HW2 1995   0.995   0.030   0.127 -0.6307 -1.6609  0.5621
  499SOL     MW 1996   0.924   0.082   0.099  0.1371 -0.0872  0.1506
  500SOL     OW 1997   1.104   2.557   2.799 -0.2908 -0.3494  0.7150
  500SOL    HW1 1998   1.148   2.501   2.863 -2.7081 -1.9115 -0.0793
  500SOL    HW2 1999   1.030   2.599   2.837  1.0810 -2.7658  2.2960
  500SOL     MW 2000   1.100   2.555   2.812 -0.4287 -0.8743  0.8188
  501SOL     OW 2001   1.754   2.264  -0.001  0.3906 -0.0045 -0.2548
  501SOL    HW1 2002   1.722   2.329   0.053 -2.2177  1.0243 -1.2698
  501SOL    HW2 2003   1.849   2.259   0.028  1.8276  0.2520  1.0629
  501SOL     MW 2004   1.762   2.272   0.010  0.2361  0.1651 -0.2149
  502SOL     OW 2005   0.118   2.830   2.995  0.2855 -0.7371  0.4453
  502SOL    HW1 2006   0.036   2.776   2.986  1.9041  0.9750  0.1015
  502SOL    HW2 2007   0.153   2.837   2.907  0.2723  0.0884  1.7592
  502SOL     MW 2008   0.112   2.824   2.982  0.4973 -0.4023  0.5733
  503SOL     OW 2009   1.135   2.728   2.132 -0.0044  0.5556  0.3584
  503SOL    HW1 2010   1.101   2.675   2.061 -0.9406 -1.2005 -0.0371
  503SOL    HW2 2011   1.120   2.819   2.105 -0.2419 -1.3558 -2.0478
  503SOL     MW 2012   1.128   2.733   2.119 -0.1593  0.0717 -0.0113
  504SOL     OW 2013   0.059   2.705   2.112  0.7721 -0.0043  0.0149
  504SOL    HW1 2014   0.099   2.618   2.103  0.4102  0.8712 -2.6645
  504SOL    HW2 2015  -0.021   2.690   2.068 -0.1135 -1.1781  0.4421
  504SOL     MW 2016   0.053   2.691   2.105  0.6075 -0.0437 -0.2822
  505SOL     OW 2017   1.758   2.707   2.836 -0.3840  0.6142 -0.5632
  505SOL    HW1 2018   1.801   2.733   2.753  0.6907  1.6654  0.5412
  505SOL    HW2 2019   1.672   2.760   2.830 -2.9341  0.3145  0.3901
  505SOL     MW 2020   1.752   2.717   2.824 -0.5787  0.7134 -0.2917
  506SOL     OW 2021   1.580   3.077   2.849 -0.3517  0.0964  0.1441
  506SOL    HW1 2022   1.633   3.056   2.929 -2.4236  0.0665  0.2408
  506SOL    HW2 2023   1.651   3.062   2.783 -0.1208 -1.5214  0.1791
  506SOL     MW 2024   1.597   3.072   2.851 -0.5946 -0.1210  0.1615
  507SOL     OW 2025   0.908   2.765   2.856 -0.0336  0.4204  0.7788
  507SOL    HW1 2026   0.912   2.863   2.836  1.5605 -0.6755  0.5472
  507SOL    HW2 2027   0.830   2.730   2.826  4.0921  0.0687 -1.6270
  507SOL     MW 2028   0.898   2.774   2.849  0.7211  0.2294  0.4309
  508SOL     OW 2029   1.151   2.099   2.491 -0.0924  0.2625  0.3217
  508SOL    HW1 2030   1.227   2.099   2.549  0.7492 -0.2077  0.1767
  508SOL    HW2 2031   1.113   2.176   2.516  1.6659 -3.7340 -2.2092
  508SOL     MW 2032   1.156   2.110   2.502  0.2506 -0.3269 -0.0314
  509SOL     OW 2033   0.699   2.573   2.718  0.1273 -0.4145  0.0728
  509SOL    HW1 2034   0.658   2.525   2.647 -1.3047  0.5378 -1.2596
  509SOL    HW2 2035   0.639   2.573   2.795 -1.9408  0.5044 -0.8449
  509SOL     MW 2036   0.686   2.567   2.719 -0.3345 -0.1676 -0.2241
  510SOL     OW 2037   1.481   2.536   1.675 -0.0817 -0.4185  0.0492
  510SOL    HW1 2038   1.524   2.609   1.635  0.0096 -0.7467 -2.1426
  510SOL    HW2 2039   1.422   2.565   1.748 -2.5334 -0.0388  2.1776
  510SOL     MW 2040   1.479   2.550   1.680 -0.3931 -0.4117  0.0409
  511SOL     OW 2041   0.419   2.652   2.445 -0.2411  0.1882 -0.3221
  511SOL    HW1 2042   0.478   2.568   2.437 -1.3479 -0.0255 -0.7803
  511SOL    HW2 2043   0.440   2.703   2.359  1.4930  2.0971 -3.0171
  511SOL     MW 2044   0.430   2.648   2.432 -0.1583  0.4119 -0.7381
  512SOL     OW 2045   1.055   2.027   2.829  0.1897  0.3519 -0.0739
  512SOL    HW1 2046   0.973   2.064   2.861  1.4557  0.6959  0.7729
  512SOL    HW2 2047   1.048   1.932   2.842 -0.7085  0.7307  1.7601
  512SOL     MW 2048   1.043   2.019   2.835  0.2382  0.4473  0.2798
  513SOL     OW 2049   1.555   2.470   2.305 -0.8616 -0.4831  0.1163
  513SOL    HW1 2050   1.614   2.494   2.232  0.0575 -0.0366 -1.0589
  513SOL    HW2 2051   1.595   2.454   2.389  2.0331 -0.1121 -0.3307
  513SOL     MW 2052   1.568   2.471   2.307 -0.3584 -0.3752 -0.0977
  514SOL     OW 2053   0.291   2.455   2.649 -0.1166  0.4211  0.2696
  514SOL    HW1 2054   0.316   2.525   2.592  1.4729  0.6656  1.2052
  514SOL    HW2 2055   0.352   2.453   2.728  0.7089  1.5402  0.4017
  514SOL     MW 2056   0.303   2.464   2.652  0.2020  0.6010  0.4105
  515SOL     OW 2057   1.127   2.057   1.961  0.0368  0.3301 -0.7132
  515SOL    HW1 2058   1.127   2.137   1.910 -1.6137  0.7858 -1.1360
  515SOL    HW2 2059   1.213   2.056   2.004 -0.0518  1.2420 -2.5268
  515SOL     MW 2060   1.139   2.068   1.960 -0.1926  0.5106 -1.0083
  516SOL     OW 2061   1.450   2.497   3.086  0.0275 -0.2908 -1.3136
  516SOL    HW1 2062   1.510   2.467   3.018 -0.0628  1.9582  0.0390
  516SOL    HW2 2063   1.373   2.538   3.050 -2.5491  0.7115  0.1807
  516SOL     MW 2064   1.448   2.499   3.073 -0.3244  0.1382 -0.9380
  517SOL     OW 2065   0.576   2.437   2.124 -0.4302  0.3560 -0.1669
  517SOL    HW1 2066   0.555   2.523   2.083  0.8783  1.0920  0.6933
  517SOL    HW2 2067   0.504   2.376   2.084  1.1816  1.8744  2.2623
  517SOL     MW 2068   0.564   2.440   2.113 -0.0449  0.6534  0.2671
  518SOL     OW 2069   1.797   0.225   3.076  0.4758  0.4622  0.3765
  518SOL    HW1 2070   1.760   0.246   2.993 -0.5874 -1.5985 -0.3300
  518SOL    HW2 2071   1.728   0.248   3.136  0.1546 -2.2673 -1.5337
  518SOL     MW 2072   1.783   0.231   3.073  0.2932 -0.1698  0.0312
  519SOL     OW 2073   0.711   2.384   1.758 -0.5004  0.5015 -0.0905
  519SOL    HW1 2074   0.760   2.305   1.741  0.3945  0.5874 -1.8421
  519SOL    HW2 2075   0.649   2.406   1.686  0.2750  1.8164 -0.6835
  519SOL     MW 2076   0.710   2.376   1.746 -0.2800  0.6863 -0.3999
  520SOL     OW 2077   1.273   2.111   2.942 -0.1922  0.3088  0.0054
  520SOL    HW1 2078   1.195   2.055   2.914 -1.1637  0.9069  0.9039
  520SOL    HW2 2079   1.316   2.060   3.014  0.0588 -0.1113 -2.2732
  520SOL     MW 2080   1.269   2.097   2.948 -0.2873  0.3323 -0.1767
  521SOL     OW 2081   1.717   2.008   2.205 -0.0784  0.9994  0.1136
  521SOL    HW1 2082   1.753   2.008   2.118  0.0799  0.5914  2.2300
  521SOL    HW2 2083   1.711   1.911   2.224  3.4963 -0.0467 -2.1355
  521SOL     MW 2084   1.721   1.995   2.196  0.4141  0.8075  0.0961
  522SOL     OW 2085   2.873   2.571   2.229 -0.3199  0.2815  0.2768
  522SOL    HW1 2086   2.964   2.558   2.260  1.2865  1.2459  0.5582
  522SOL    HW2 2087   2.836   2.595   2.314 -0.2125 -1.9799 -2.2919
  522SOL     MW 2088   2.881   2.572   2.245 -0.0937  0.1104 -0.0250
  523SOL     OW 2089   0.903   1.516   2.162 -0.7135 -1.1856 -0.3856
  523SOL    HW1 2090   0.880   1.576   2.088  0.1788  0.9443  2.1085
  523SOL    HW2 2091   0.941   1.441   2.124 -0.4851  0.9371 -0.3870
  523SOL     MW 2092   0.905   1.514   2.148 -0.5656 -0.6245 -0.0567
  524SOL     OW 2093   0.678   2.392   2.936  0.3566 -0.6113 -0.9250
  524SOL    HW1 2094   0.679   2.419   2.849 -0.9749 -1.0583  1.1817
  524SOL    HW2 2095   0.737   2.317   2.936  0.1536  0.4366  0.8873
  524SOL     MW 2096   0.686   2.386   2.925  0.1541 -0.5320 -0.4079
  525SOL     OW 2097   0.351   2.295   2.074  0.4959 -0.1617  0.6484
  525SOL    HW1 2098   0.322   2.231   2.137 -0.3295 -0.1766 -2.5725
  525SOL    HW2 2099   0.363   2.239   1.996 -0.8422  3.0101  2.2983
  525SOL     MW 2100   0.349   2.279   2.072  0.2105  0.2548  0.4411
  526SOL     OW 2101   0.669   2.100   2.012  0.1984 -0.5003  0.1613
  526SOL    HW1 2102   0.716   2.124   1.935  0.3766  1.0392  2.6759
  526SOL    HW2 2103   0.689   2.168   2.076 -0.5030  1.5273  1.0954
  526SOL     MW 2104   0.678   2.112   2.010  0.1294 -0.0296  0.6163
  527SOL     OW 2105   1.434   2.027   2.055 -0.1870 -0.4032 -0.6055
  527SOL    HW1 2106   1.407   2.021   2.144 -3.0633 -0.0625 -2.0215
  527SOL    HW2 2107   1.454   1.938   2.021  1.5897  0.5858 -1.7716
  527SOL     MW 2108   1.433   2.015   2.062 -0.3321 -0.2278 -0.9462
  528SOL     OW 2109   0.637   2.916   2.895 -0.0967  0.5882 -0.0599
  528SOL    HW1 2110   0.694   2.990   2.915  0.6026 -2.2734 -0.8434
  528SOL    HW2 2111   0.596   2.937   2.813 -1.2142  0.8245 -0.0187
  528SOL     MW 2112   0.639   2.928   2.887 -0.1518  0.2418 -0.1578
  529SOL     OW 2113   1.056   2.307   1.846 -0.3888  0.5808 -0.0287
  529SOL    HW1 2114   1.043   2.345   1.932  1.1651  4.4321  0.0442
  529SOL    HW2 2115   1.055   2.391   1.794 -0.7336 -1.2572  1.3026
  529SOL     MW 2116   1.054   2.323   1.850 -0.2293  0.8464  0.1566
  530SOL     OW 2117   1.194   2.406   3.009  0.0399 -0.0092 -0.5278
  530SOL    HW1 2118   1.153   2.414   3.091  2.5352  0.7817 -1.6406
  530SOL    HW2 2119   1.207   2.312   2.994  0.9674 -0.1891 -0.5228
  530SOL     MW 2120   1.190   2.395   3.018  0.4915  0.0714 -0.6740
  531SOL     OW 2121   0.910   1.874   2.574  0.3724 -0.0139 -0.1760
  531SOL    HW1 2122   0.947   1.938   2.640  1.3090  2.6762  2.5666
  531SOL    HW2 2123   0.903   1.791   2.628 -1.0885  0.1270  0.7641
  531SOL     MW 2124   0.914   1.871   2.590  0.3033  0.3596  0.3099
  532SOL     OW 2125   1.746   0.297   2.813  0.5116 -0.0945 -0.0415
  532SOL    HW1 2126   1.758   0.212   2.773  0.7289  1.2509 -0.8012
  532SOL    HW2 2127   1.826   0.352   2.804  2.7673 -1.5424  1.9529
  532SOL     MW 2128   1.758   0.293   2.807  0.8379 -0.1080  0.1214
  533SOL     OW 2129   1.882   2.631   3.069  0.0784  0.3356 -0.0445
  533SOL    HW1 2130   1.831   2.589   3.147  0.0601  1.4027  1.8108
  533SOL    HW2 2131   1.822   2.643   2.997  0.5175  2.2716  2.4703
  533SOL     MW 2132   1.867   2.627   3.070  0.1339  0.7319  0.5321
  534SOL     OW 2133   1.728   2.402   2.550  0.0314 -0.1152  0.2049
  534SOL    HW1 2134   1.654   2.356   2.597 -0.6908 -0.7682  0.3536
  534SOL    HW2 2135   1.809   2.375   2.598  0.3793  0.6178 -0.4113
  534SOL     MW 2136   1.729   2.392   2.563 -0.0180 -0.1046  0.1432
  535SOL     OW 2137   1.913   2.384   1.876  0.1732 -0.8807  0.7113
  535SOL    HW1 2138   1.842   2.405   1.813 -1.4086  1.0678  1.3752
  535SOL    HW2 2139   1.987   2.441   1.855  1.0064 -1.2408  1.2915
  535SOL     MW 2140   1.914   2.394   1.865  0.0744 -0.6711  0.8754
  536SOL     OW 2141   0.434   1.834   2.096 -0.0926 -0.2596  0.1094
  536SOL    HW1 2142   0.428   1.793   2.003 -1.8579  0.2783 -1.5512
  536SOL    HW2 2143   0.494   1.906   2.084 -1.5532 -1.4998 -0.8729
  536SOL     MW 2144   0.441   1.838   2.082 -0.5182 -0.3522 -0.2393
  537SOL     OW 2145   1.097   0.223   2.843  0.0996 -0.2240 -0.1383
  537SOL    HW1 2146   1.028   0.268   2.889  2.0457 -1.8359 -1.5983
  537SOL    HW2 2147   1.084   0.261   2.759 -1.5378 -2.3026  0.1276
  537SOL     MW 2148   1.086   0.234   2.838  0.1404 -0.7109 -0.2958
  538SOL     OW 2149   1.341   0.065   3.086  0.4371 -0.6370  0.0820
  538SOL    HW1 2150   1.316   0.151   3.046  0.0235  1.0749 -2.6242
  538SOL    HW2 2151   1.423   0.043   3.039 -0.0806  0.5188  1.1396
  538SOL     MW 2152   1.349   0.074   3.075  0.3142 -0.2586 -0.1355
  539SOL     OW 2153   0.717   2.776   2.507  0.9945 -0.5138  1.0593
  539SOL    HW1 2154   0.792   2.815   2.556  0.0652  0.2097 -0.7561
  539SOL    HW2 2155   0.697   2.693   2.549  0.6655 -0.0294  0.5906
  539SOL     MW 2156   0.724   2.770   2.519  0.8285 -0.3544  0.7579
  540SOL     OW 2157   0.397   2.496   2.890 -0.2974 -0.0935 -0.1745
  540SOL    HW1 2158   0.463   2.533   2.947 -0.9378  0.1278  0.1175
  540SOL    HW2 2159   0.342   2.435   2.939  1.0343  0.5489 -2.5375
  540SOL     MW 2160   0.399   2.493   2.904 -0.2062  0.0204 -0.4478
  541SOL     OW 2161   0.193   2.926   2.208 -0.2589  0.4059  0.5951
  541SOL    HW1 2162   0.161   2.848   2.172 -1.2238  0.7698  3.0917
  541SOL    HW2 2163   0.223   2.904   2.294  1.7559  0.2835  1.4894
  541SOL     MW 2164   0.193   2.913   2.215 -0.1204  0.4377  1.0425
  542SOL     OW 2165   1.050   2.308   2.659  0.3744  0.3178  0.1939
  542SOL    HW1 2166   1.048   2.237   2.721 -1.6419 -0.1269 -1.2119
  542SOL    HW2 2167   1.076   2.390   2.709  1.7172  0.0922  0.8100
  542SOL     MW 2168   1.053   2.309   2.674  0.2855  0.2294  0.0897
  543SOL     OW 2169   1.621   2.438   2.902  0.5088  0.0716 -0.0847
  543SOL    HW1 2170   1.582   2.414   2.817 -0.9904 -0.5494 -1.1295
  543SOL    HW2 2171   1.670   2.513   2.876  1.2764  0.3945  2.6162
  543SOL     MW 2172   1.622   2.444   2.887  0.4123  0.0323  0.1338
  544SOL     OW 2173   0.708   0.231   2.719 -0.3324  0.0817 -0.1141
  544SOL    HW1 2174   0.619   0.266   2.705 -1.6009  1.6211  0.8944
  544SOL    HW2 2175   0.719   0.187   2.634  1.1346 -1.4707 -1.1243
  544SOL     MW 2176   0.698   0.230   2.706 -0.3062  0.0800 -0.1143
  545SOL     OW 2177   1.542   2.166   2.358 -0.5626 -0.1515  0.0291
  545SOL    HW1 2178   1.512   2.244   2.313  1.5963 -2.6161 -0.7736
  545SOL    HW2 2179   1.622   2.143   2.300 -0.9890  2.3804 -0.0947
  545SOL     MW 2180   1.549   2.173   2.344 -0.3340 -0.1426 -0.0931
  546SOL     OW 2181   2.970   1.996   0.121 -0.4358  0.0879 -0.1514
  546SOL    HW1 2182   2.945   2.069   0.059 -0.7515  0.1173 -2.4004
  546SOL    HW2 2183   3.059   1.968   0.095 -0.7068 -0.8596  1.0171
  546SOL     MW 2184   2.979   2.002   0.109 -0.5132 -0.0333 -0.2939
  547SOL     OW 2185   0.210   0.054   0.049 -1.3405  0.3721 -0.0511
  547SOL    HW1 2186   0.295   0.065  -0.007  2.2995  1.3532  0.6502
  547SOL    HW2 2187   0.150   0.012  -0.015  0.4119  1.0258 -1.5661
  547SOL     MW 2188   0.214   0.050   0.033 -0.6290  0.5878 -0.1584
  548SOL     OW 2189   0.305   2.521   0.283  0.2847  0.6167  0.0929
  548SOL    HW1 2190   0.296   2.565   0.200 -3.0685  0.7640  5.2285
  548SOL    HW2 2191   0.217   2.479   0.277  0.6050 -1.3636  0.6426
  548SOL     MW 2192   0.292   2.521   0.271 -0.1155  0.3749  0.8431
  549SOL     OW 2193   0.794   1.880   2.121 -0.1973  0.4358  0.1367
  549SOL    HW1 2194   0.761   1.965   2.078  1.2771  2.3460 -0.4900
  549SOL    HW2 2195   0.760   1.874   2.210 -2.4199  0.9531 -0.6887
  549SOL     MW 2196   0.785   1.890   2.127 -0.2960  0.7560 -0.0548
  550SOL     OW 2197   1.785   1.739   2.545  0.3006  0.4336 -0.3046
  550SOL    HW1 2198   1.808   1.748   2.452 -1.7611 -0.0667 -0.7129
  550SOL    HW2 2199   1.788   1.831   2.581  0.0870 -1.2180  2.0008
  550SOL     MW 2200   1.788   1.753   2.537  0.0004  0.1497 -0.0543
  551SOL     OW 2201   0.908   2.286   0.222  0.5691  0.3365  0.7586
  551SOL    HW1 2202   1.004   2.275   0.217  0.9200 -1.3287  1.4875
  551SOL    HW2 2203   0.882   2.199   0.184  2.2287  2.8820 -2.5336
  551SOL     MW 2204   0.918   2.273   0.217  0.8344  0.4526  0.4204
  552SOL     OW 2205   1.762   1.761   2.261  0.1303  0.1573  0.0335
  552SOL    HW1 2206   1.673   1.722   2.272 -0.8295 -5.9809 -1.1534
  552SOL    HW2 2207   1.796   1.718   2.178 -2.0731  3.3509  0.2391
  552SOL     MW 2208   1.755   1.750   2.251 -0.2870 -0.2312 -0.0960
  553SOL     OW 2209   1.277   2.318   1.569 -0.0128 -0.3548  0.2998
  553SOL    HW1 2210   1.323   2.238   1.572 -0.0105  0.6117  0.4672
  553SOL    HW2 2211   1.348   2.378   1.546 -1.4550 -0.3603  1.8637
  553SOL     MW 2212   1.292   2.315   1.566 -0.2028 -0.2280  0.5282
  554SOL     OW 2213   0.538   2.939   2.646  0.0471  0.3631  0.1636
  554SOL    HW1 2214   0.536   3.022   2.587  0.1483  1.3130  1.0441
  554SOL    HW2 2215   0.582   2.878   2.586  1.5815 -0.3623  3.7151
  554SOL     MW 2216   0.543   2.942   2.630  0.2629  0.3927  0.7484
  555SOL     OW 2217   0.612   2.451   2.485  0.4976 -0.1104  0.6247
  555SOL    HW1 2218   0.564   2.367   2.509 -2.6644 -1.0401  0.0113
  555SOL    HW2 2219   0.700   2.432   2.491 -2.2894 -1.8748 -2.3517
  555SOL     MW 2220   0.617   2.438   2.489 -0.2873 -0.4659  0.1511
  556SOL     OW 2221   0.963   1.845   0.087  0.2974 -0.4266  0.4512
  556SOL    HW1 2222   0.998   1.829   0.002 -2.5603  0.6081 -1.6048
  556SOL    HW2 2223   1.043   1.856   0.136  0.8079  2.1518  0.0227
  556SOL     MW 2224   0.978   1.845   0.082 -0.0123  0.0501  0.1234
  557SOL     OW 2225   0.979   2.661   0.488  0.7154  0.6020 -0.1836
  557SOL    HW1 2226   1.053   2.627   0.439 -2.1506  1.9981 -0.4720
  557SOL    HW2 2227   0.956   2.740   0.449 -0.8675 -2.7819  1.8689
  557SOL     MW 2228   0.986   2.667   0.477  0.1284  0.3397  0.0492
  558SOL     OW 2229   0.215   2.326   3.007 -0.1653 -0.1993  0.1909
  558SOL    HW1 2230   0.147   2.296   2.950  2.2954 -0.4602 -2.5370
  558SOL    HW2 2231   0.167   2.343   3.087  2.0019  0.1974  2.4978
  558SOL     MW 2232   0.200   2.325   3.010  0.4453 -0.1814  0.1354
  559SOL     OW 2233   1.073   2.328   2.127 -0.2555 -0.7388  0.2067
  559SOL    HW1 2234   1.132   2.382   2.182  1.6700  1.8525 -1.6846
  559SOL    HW2 2235   1.054   2.251   2.180  1.5236  0.6497  2.1141
  559SOL     MW 2236   1.078   2.325   2.141  0.2333 -0.2137  0.2088
  560SOL     OW 2237   1.975   2.888   0.017 -0.0057 -0.3163  0.0475
  560SOL    HW1 2238   2.043   2.907  -0.045 -1.4682  0.5106  1.9766
  560SOL    HW2 2239   1.936   2.801  -0.011 -3.2138 -0.7980 -0.1367
  560SOL     MW 2240   1.979   2.879   0.005 -0.6219 -0.2707  0.2777
  561SOL     OW 2241   0.351   2.126   0.047 -0.4399 -0.1144  0.1864
  561SOL    HW1 2242   0.317   2.167  -0.031 -0.7208  1.7774 -0.0192
  561SOL    HW2 2243   0.386   2.203   0.096  0.5628  0.8801 -0.4299
  561SOL     MW 2244   0.351   2.141   0.043 -0.3447  0.2664  0.0779
  562SOL     OW 2245   0.700   2.237   2.286  0.4474  0.0033  0.5584
  562SOL    HW1 2246   0.665   2.327   2.293 -0.3473  1.2391 -0.7801
  562SOL    HW2 2247   0.791   2.237   2.305 -3.3891  1.0228  3.3163
  562SOL     MW 2248   0.707   2.249   2.290 -0.1636  0.3009  0.7457
  563SOL     OW 2249   1.247   0.341   0.580 -0.3674  0.9558  0.7197
  563SOL    HW1 2250   1.192   0.277   0.532 -0.9656  0.8664  2.4450
  563SOL    HW2 2251   1.236   0.317   0.671  1.4169 -0.8389 -2.4851
  563SOL     MW 2252   1.238   0.329   0.586 -0.2109  0.7073  0.5245
  564SOL     OW 2253   1.163   2.580   2.360 -0.2042  0.7414  0.1637
  564SOL    HW1 2254   1.156   2.638   2.286  0.5121 -0.6576  2.0926
  564SOL    HW2 2255   1.160   2.631   2.439 -1.3958  1.2192  2.2011
  564SOL     MW 2256   1.161   2.595   2.361 -0.2669  0.6198  0.6870
  565SOL     OW 2257   2.789   2.762   2.651 -0.5469 -0.3203  0.0233
  565SOL    HW1 2258   2.775   2.853   2.623 -1.9727  0.5976  0.2491
  565SOL    HW2 2259   2.744   2.706   2.582 -2.1247 -1.9108 -0.2065
  565SOL     MW 2260   2.781   2.767   2.639 -0.9432 -0.4090  0.0227
  566SOL     OW 2261   2.126   1.823   2.420  0.1985  0.0922  0.2846
  566SOL    HW1 2262   2.151   1.780   2.339 -0.0047  1.4274 -0.2699
  566SOL    HW2 2263   2.189   1.901   2.434 -0.9615  0.8460  1.8607
  566SOL     MW 2264   2.137   1.828   2.411  0.0187  0.3679  0.4194
  567SOL     OW 2265   1.119   2.970   3.060 -0.4205  0.6597  0.7010
  567SOL    HW1 2266   1.185   3.018   3.114 -0.2118  1.9107 -0.4485
  567SOL    HW2 2267   1.151   2.881   3.055  0.0339 -1.6138 -0.6998
  567SOL     MW 2268   1.132   2.965   3.066 -0.3330  0.5248  0.3645
  568SOL     OW 2269   1.623   2.073   2.870 -0.2487 -0.0243  0.0199
  568SOL    HW1 2270   1.661   2.145   2.924 -0.1795 -1.5725 -0.4361
  568SOL    HW2 2271   1.692   2.032   2.825  0.1449  2.2590 -0.1728
  568SOL     MW 2272   1.637   2.077   2.871 -0.1876  0.0727 -0.0657
  569SOL     OW 2273   0.164   2.284   2.490 -0.2694 -0.5007  0.3976
  569SOL    HW1 2274   0.095   2.331   2.440  1.7869  1.9575  0.5044
  569SOL    HW2 2275   0.197   2.350   2.551  0.6339 -0.5801  1.0554
  569SOL     MW 2276   0.160   2.299   2.492  0.1211 -0.1868  0.4985
  570SOL     OW 2277   1.500   0.355   0.503  0.1069 -0.5922  0.3916
  570SOL    HW1 2278   1.402   0.351   0.526 -1.6302 -0.3890 -0.3422
  570SOL    HW2 2279   1.537   0.375   0.593  2.4847  2.0147 -0.1667
  570SOL     MW 2280   1.492   0.357   0.518  0.1914 -0.2214  0.2211
  571SOL     OW 2281   1.377   2.413   2.035 -0.8155 -0.1742  0.7645
  571SOL    HW1 2282   1.420   2.438   2.114 -0.3908  0.2021  0.4906
  571SOL    HW2 2283   1.433   2.350   1.985  1.4421 -2.0410 -1.2761
  571SOL     MW 2284   1.390   2.408   2.039 -0.4616 -0.3709  0.4591
  572SOL     OW 2285   1.060   2.602   0.107  0.2543  0.3496 -0.1300
  572SOL    HW1 2286   1.054   2.687   0.068 -1.0086  0.9214 -0.7294
  572SOL    HW2 2287   0.962   2.587   0.114 -3.5179  0.5193 -0.8795
  572SOL     MW 2288   1.046   2.611   0.103 -0.4100  0.4474 -0.3080
  573SOL     OW 2289   1.183   2.293   0.217 -0.3640 -0.0298  0.3052
  573SOL    HW1 2290   1.278   2.292   0.199  0.2609  0.2793  0.9778
  573SOL    HW2 2291   1.171   2.374   0.267  0.1963  0.9231  2.0272
  573SOL     MW 2292   1.194   2.304   0.222 -0.2076  0.1367  0.6211
  574SOL     OW 2293   1.172   2.534   0.347 -0.1912 -0.0725 -0.2645
  574SOL    HW1 2294   1.260   2.578   0.356 -1.5280  0.2089 -1.7586
  574SOL    HW2 2295   1.140   2.548   0.259  1.1073 -0.7234 -2.6608
  574SOL     MW 2296   1.179   2.541   0.337 -0.1962 -0.1212 -0.7778
  575SOL     OW 2297   3.041   2.204   1.807 -0.1194  0.7676 -0.3492
  575SOL    HW1 2298   3.073   2.133   1.748  1.3564  0.5985 -1.8711
  575SOL    HW2 2299   3.127   2.238   1.829 -1.9644 -0.8294 -2.2483
  575SOL     MW 2300   3.057   2.199   1.802 -0.1681  0.5346 -0.8006
  576SOL     OW 2301   2.808   1.813   2.036 -0.0375  0.2755 -0.4557
  576SOL    HW1 2302   2.821   1.900   2.000  1.9921  1.2704 -1.2684
  576SOL    HW2 2303   2.706   1.807   2.042  0.2123 -0.7831 -0.6216
  576SOL     MW 2304   2.796   1.824   2.032  0.2632  0.2671 -0.5848
  577SOL     OW 2305   2.049   0.195   0.073 -0.1108  0.4277  0.6449
  577SOL    HW1 2306   1.966   0.201   0.016 -0.4818  0.2925  0.0563
  577SOL    HW2 2307   2.029   0.141   0.156 -1.3677 -0.2421  1.8475
  577SOL     MW 2308   2.035   0.188   0.077 -0.3256  0.3215  0.7259
  578SOL     OW 2309   1.928   2.043   2.354 -0.4813  0.2360  0.1673
  578SOL    HW1 2310   1.851   2.031   2.289 -1.2372  0.8383  3.8217
  578SOL    HW2 2311   1.962   1.954   2.386  1.0816  0.7231  2.3072
  578SOL     MW 2312   1.922   2.030   2.349 -0.3748  0.3797  0.9318
  579SOL     OW 2313   0.944   2.435   2.438  0.3230  0.4409 -0.0457
  579SOL    HW1 2314   0.975   2.384   2.510  3.1875 -0.6819  0.8578
  579SOL    HW2 2315   1.022   2.475   2.404 -0.6697  0.2092  3.0466
  579SOL     MW 2316   0.959   2.434   2.443  0.5700  0.2622  0.4815
  580SOL     OW 2317   0.906   2.826   0.032 -0.1298 -0.6142  0.0899
  580SOL    HW1 2318   0.964   2.902   0.015 -1.0935  0.4399  0.6056
  580SOL    HW2 2319   0.880   2.792  -0.053 -1.8465  0.4275 -1.8345
  580SOL     MW 2320   0.911   2.831   0.018 -0.4835 -0.3377 -0.0960
  581SOL     OW 2321   1.136   2.527   1.680  0.5032 -0.1263  0.1586
  581SOL    HW1 2322   1.167   2.565   1.762 -2.7336 -1.6707 -1.9692
  581SOL    HW2 2323   1.204   2.456   1.654  2.3439 -5.3582  0.7129
  581SOL     MW 2324   1.149   2.522   1.688  0.3190 -1.0204 -0.0490
  582SOL     OW 2325   0.046   2.779   2.677  0.2285 -0.3836  0.8715
  582SOL    HW1 2326  -0.039   2.821   2.693 -1.9768  0.7007 -0.2283
  582SOL    HW2 2327   0.109   2.852   2.676  0.0070 -0.9411  0.6374
  582SOL     MW 2328   0.043   2.795   2.679 -0.0917 -0.3141  0.6955
  583SOL     OW 2329   1.989   2.415   2.661 -0.0130  0.4826 -0.0501
  583SOL    HW1 2330   2.052   2.435   2.594  0.9080 -1.6576  1.0982
  583SOL    HW2 2331   1.996   2.326   2.685 -1.3087  2.9700  0.7140
  583SOL     MW 2332   1.998   2.406   2.655 -0.0624  0.5284  0.2023
  584SOL     OW 2333   0.115   1.904   2.209 -0.3846  0.2071 -0.3101
  584SOL    HW1 2334   0.129   1.869   2.299 -1.8488  0.1301 -1.2064
  584SOL    HW2 2335   0.142   1.997   2.219  0.5567  0.1611 -0.3986
  584SOL     MW 2336   0.120   1.911   2.222 -0.4536  0.1909 -0.4400
  585SOL     OW 2337   1.573   2.554   0.230  0.2392 -0.1688  0.3873
  585SOL    HW1 2338   1.530   2.530   0.146 -2.4253 -0.1937 -1.6336
  585SOL    HW2 2339   1.497   2.590   0.286 -0.8039  1.1103 -0.3879
  585SOL     MW 2340   1.557   2.555   0.227 -0.2500 -0.0033  0.0184
  586SOL     OW 2341   1.397   2.854   2.581  0.6387 -0.7663  0.2561
  586SOL    HW1 2342   1.405   2.821   2.493  0.5980  0.8872  0.2226
  586SOL    HW2 2343   1.357   2.943   2.572 -0.6158  2.0615  0.3056
  586SOL     MW 2344   1.393   2.861   2.568  0.4678 -0.1750  0.2582
  587SOL     OW 2345   1.366   1.523   2.153  0.1940 -0.3238 -0.2024
  587SOL    HW1 2346   1.334   1.468   2.231  1.7486 -1.7000  0.6166
  587SOL    HW2 2347   1.372   1.458   2.081  0.3339 -0.3106 -0.6549
  587SOL     MW 2348   1.363   1.507   2.154  0.4175 -0.5037 -0.1540
  588SOL     OW 2349   1.349   2.056   2.687  0.1242 -0.2591  0.4645
  588SOL    HW1 2350   1.359   1.960   2.665 -0.4134  1.6232 -0.6546
  588SOL    HW2 2351   1.353   2.058   2.781  1.1014 -0.0111 -0.7676
  588SOL     MW 2352   1.351   2.043   2.697  0.1822  0.0220  0.1543
  589SOL     OW 2353   1.398   2.021   0.096  0.0613 -0.1103 -1.1394
  589SOL    HW1 2354   1.406   2.107   0.130  3.5397 -0.5795  0.6476
  589SOL    HW2 2355   1.331   1.983   0.150  2.0322  0.4338 -0.7136
  589SOL     MW 2356   1.390   2.028   0.107  0.7803 -0.1004 -0.8475
  590SOL     OW 2357   0.515   2.783   2.211  0.2515 -0.1534  0.2054
  590SOL    HW1 2358   0.481   2.759   2.125  2.1428  2.5337  0.8914
  590SOL    HW2 2359   0.611   2.783   2.199 -1.7928 -1.7099 -2.6910
  590SOL     MW 2360   0.523   2.779   2.198  0.2313 -0.0042 -0.0862
  591SOL     OW 2361   2.246   0.686   0.030  0.4634  0.2544 -0.2034
  591SOL    HW1 2362   2.173   0.737  -0.017  0.8532 -0.3304  2.4048
  591SOL    HW2 2363   2.321   0.684  -0.033  1.4996  1.3481  4.7989
  591SOL     MW 2364   2.246   0.692   0.016  0.6515  0.3216  0.8008
  592SOL     OW 2365   1.735   2.936   0.776  0.0913  0.1070 -0.2183
  592SOL    HW1 2366   1.751   3.013   0.720  0.0277 -2.3907  0.2168
  592SOL    HW2 2367   1.823   2.898   0.783  1.5193  1.5489 -0.3699
  592SOL     MW 2368   1.749   2.941   0.770  0.2713 -0.0323 -0.1809
  593SOL     OW 2369   1.955   0.634   0.856 -0.2604  0.5964 -0.3578
  593SOL    HW1 2370   1.872   0.616   0.812 -0.2870 -1.1546  0.9597
  593SOL    HW2 2371   2.014   0.559   0.845 -1.7627 -1.4095  1.8585
  593SOL     MW 2372   1.952   0.622   0.848 -0.4621  0.1007  0.1085
  594SOL     OW 2373   2.781   1.144   1.372 -0.0202 -0.5003  0.1447
  594SOL    HW1 2374   2.880   1.142   1.365  3.4638 -0.9589 -2.5420
  594SOL    HW2 2375   2.751   1.099   1.293 -0.6205  0.2052 -0.4074
  594SOL     MW 2376   2.790   1.138   1.360  0.3603 -0.4677 -0.2826
  595SOL     OW 2377   0.484   0.975   0.812  0.0868 -0.5337  0.5842
  595SOL    HW1 2378   0.505   1.036   0.735 -1.0360 -1.5031 -2.5753
  595SOL    HW2 2379   0.470   1.037   0.882 -1.1626  3.4681 -0.2659
  595SOL     MW 2380   0.485   0.991   0.811 -0.2262 -0.1336  0.0552
  596SOL     OW 2381   2.454   1.327   0.568 -0.8302  0.1745 -0.0335
  596SOL    HW1 2382   2.520   1.389   0.535 -1.2353 -1.1981  0.9574
  596SOL    HW2 2383   2.480   1.305   0.659 -2.3450  1.3631 -2.8875
  596SOL     MW 2384   2.466   1.332   0.575 -1.0835  0.1502 -0.2793
  597SOL     OW 2385   2.186   0.678   1.633  0.1570 -0.5290  0.1112
  597SOL    HW1 2386   2.211   0.605   1.687  2.2114  2.2179  0.7455
  597SOL    HW2 2387   2.133   0.637   1.562 -1.8491 -0.4131 -1.6229
  597SOL     MW 2388   2.182   0.663   1.630  0.1634 -0.1513 -0.0339
  598SOL     OW 2389   2.549   1.026   2.805  0.1605  0.0031  0.8889
  598SOL    HW1 2390   2.583   1.003   2.719 -0.6040 -1.7845 -0.5773
  598SOL    HW2 2391   2.625   1.061   2.851  1.2016  2.3181  0.3132
  598SOL     MW 2392   2.564   1.027   2.800  0.1970  0.0727  0.6195
  599SOL     OW 2393   2.982   0.406   2.084  0.0374  0.0756 -0.1422
  599SOL    HW1 2394   3.020   0.461   2.155  0.2492 -1.7130  1.2425
  599SOL    HW2 2395   2.978   0.466   2.007 -1.8378 -1.6144 -0.2762
  599SOL     MW 2396   2.986   0.421   2.083 -0.1821 -0.3834  0.0228
  600SOL     OW 2397   1.831   1.638   0.905 -0.2986  0.0122 -0.0752
  600SOL    HW1 2398   1.881   1.689   0.972  0.2905  1.3954 -0.3475
  600SOL    HW2 2399   1.751   1.688   0.878 -0.6161  0.5457 -2.1216
  600SOL     MW 2400   1.827   1.651   0.910 -0.2627  0.2651 -0.3811
  601SOL     OW 2401   2.535   0.774   0.821  0.2362 -0.5167 -0.0721
  601SOL    HW1 2402   2.539   0.781   0.919  1.9462  1.2697 -2.0592
  601SOL    HW2 2403   2.464   0.719   0.792 -0.1422 -1.7835 -0.7861
  601SOL     MW 2404   2.526   0.768   0.830  0.4119 -0.4481 -0.4285
  602SOL     OW 2405   2.285   1.946   0.745  0.5754 -0.6750 -0.0263
  602SOL    HW1 2406   2.243   1.859   0.725 -1.4284 -0.1359 -0.1559
  602SOL    HW2 2407   2.239   2.011   0.691  0.5558 -0.1994  1.0342
  602SOL     MW 2408   2.273   1.943   0.735  0.3084 -0.5411  0.0965
  603SOL     OW 2409   3.071   1.399   1.950 -1.0392 -0.0284  0.4818
  603SOL    HW1 2410   3.161   1.436   1.968  1.2733  0.7845 -1.0554
  603SOL    HW2 2411   3.067   1.312   1.996 -2.1824 -0.5535  0.4600
  603SOL     MW 2412   3.082   1.392   1.958 -0.8849  0.0096  0.2761
  604SOL     OW 2413   2.077   1.477   0.471 -0.6084  0.3386 -0.2750
  604SOL    HW1 2414   2.106   1.384   0.502 -0.9266 -2.3530 -2.6121
  604SOL    HW2 2415   2.030   1.521   0.541  3.2898 -0.5029 -1.9351
  604SOL     MW 2416   2.075   1.470   0.484 -0.1361 -0.1276 -0.8024
  605SOL     OW 2417   2.532   1.488   0.899  0.2991 -0.5265 -0.2993
  605SOL    HW1 2418   2.490   1.534   0.830  1.9599 -1.1442  2.3854
  605SOL    HW2 2419   2.541   1.399   0.864 -0.7204 -0.0050  3.1464
  605SOL     MW 2420   2.528   1.482   0.885  0.3837 -0.5392  0.5096
  606SOL     OW 2421   2.540   1.756   2.033 -0.2473  0.5645 -0.2816
  606SOL    HW1 2422   2.457   1.771   1.991  1.1912 -0.7537 -2.5205
  606SOL    HW2 2423   2.584   1.691   1.980  0.7957  1.5828  2.0697
  606SOL     MW 2424   2.535   1.749   2.020  0.0801  0.5249 -0.2668
  607SOL     OW 2425   2.393   1.022   3.030 -0.0694 -1.1938  0.4261
  607SOL    HW1 2426   2.451   1.016   2.955  2.4678 -0.0481  2.2401
  607SOL    HW2 2427   2.446   1.003   3.112  2.7243 -0.9923 -1.1650
  607SOL     MW 2428   2.407   1.019   3.031  0.6340 -1.0160  0.4555
  608SOL     OW 2429   1.852   0.284   0.561  0.4237 -0.0068  0.0567
  608SOL    HW1 2430   1.863   0.332   0.477 -3.6570  0.1832  1.3422
  608SOL    HW2 2431   1.803   0.200   0.538 -0.2808 -4.5680 -0.0645
  608SOL     MW 2432   1.847   0.279   0.547 -0.2077 -0.5835  0.2103
  609SOL     OW 2433   2.117   1.955   3.065  0.4131 -0.3592 -0.7797
  609SOL    HW1 2434   2.062   1.881   3.033 -0.7242 -3.2748 -0.5915
  609SOL    HW2 2435   2.118   1.934   3.160 -1.4659 -0.6962  0.5318
  609SOL     MW 2436   2.110   1.942   3.073  0.0152 -0.7883 -0.5818
  610SOL     OW 2437   1.831   0.937   1.227 -0.2399 -0.1638 -0.0355
  610SOL    HW1 2438   1.853   0.861   1.179 -1.2284  0.8934  0.6728
  610SOL    HW2 2439   1.734   0.932   1.228  1.2521 -1.2210 -0.2305
  610SOL     MW 2440   1.821   0.926   1.221 -0.1734 -0.1638  0.0323
  611SOL     OW 2441   2.507   1.651   0.679 -0.3149  0.0311  0.0452
  611SOL    HW1 2442   2.549   1.728   0.639 -0.9476  2.0818 -0.9592
  611SOL    HW2 2443   2.419   1.642   0.650  0.2452 -1.1644  1.8923
  611SOL     MW 2444   2.501   1.660   0.670 -0.3245  0.1439  0.1564
  612SOL     OW 2445   2.826   2.899   0.377 -0.0017  0.6419  0.0098
  612SOL    HW1 2446   2.868   2.920   0.460  0.0486 -1.3705  2.5574
  612SOL    HW2 2447   2.903   2.879   0.321  1.0594 -2.5768 -1.1791
  612SOL     MW 2448   2.842   2.899   0.380  0.1450 -0.0483  0.1891
  613SOL     OW 2449   1.449   1.055   0.929  0.3177 -0.1807 -0.0597
  613SOL    HW1 2450   1.448   1.150   0.946  2.0019  0.2510  2.8178
  613SOL    HW2 2451   1.501   1.016   0.999 -2.2936 -0.4979 -1.0496
  613SOL     MW 2452   1.455   1.062   0.940  0.1954 -0.1656  0.1894
  614SOL     OW 2453   1.989   0.503   1.501  0.4567 -0.7098 -0.1873
  614SOL    HW1 2454   1.974   0.443   1.578  1.8512  1.7454 -2.0532
  614SOL    HW2 2455   1.930   0.469   1.431 -1.4276 -4.4319  1.1762
  614SOL     MW 2456   1.979   0.491   1.502  0.3921 -0.8770 -0.2536
  615SOL     OW 2457   2.331   0.740   0.286  0.5826 -0.4900  0.0457
  615SOL    HW1 2458   2.409   0.686   0.288  0.4217 -0.4108  1.2795
  615SOL    HW2 2459   2.286   0.713   0.199 -0.7346 -2.0764 -1.9624
  615SOL     MW 2460   2.335   0.729   0.275  0.3876 -0.6889 -0.0565
  616SOL     OW 2461   2.516   0.450   1.667 -0.2352  0.1234 -0.4456
  616SOL    HW1 2462   2.544   0.365   1.635 -2.5295  1.0997  0.2422
  616SOL    HW2 2463   2.495   0.506   1.590  2.1708  0.9239  0.8255
  616SOL     MW 2464   2.517   0.446   1.653 -0.2205  0.3578 -0.1872
  617SOL     OW 2465   2.845   0.600   1.689  0.4162 -0.0572  0.6466
  617SOL    HW1 2466   2.759   0.610   1.722  0.7321 -0.5554  1.2281
  617SOL    HW2 2467   2.878   0.516   1.709  1.2113  3.5212 -0.9536
  617SOL     MW 2468   2.838   0.590   1.696  0.5628  0.3492  0.5122
  618SOL     OW 2469   2.710   0.385   1.990  0.3137  0.2721  0.3587
  618SOL    HW1 2470   2.701   0.477   1.978  1.2159 -1.0430  0.5947
  618SOL    HW2 2471   2.786   0.360   2.040  2.0454  0.8997 -0.1011
  618SOL     MW 2472   2.719   0.394   1.995  0.6612  0.1814  0.3292
  619SOL     OW 2473   2.686   0.712   0.049 -0.6364  0.1562 -0.0074
  619SOL    HW1 2474   2.711   0.800   0.071  0.9629 -1.5113  0.8320
  619SOL    HW2 2475   2.634   0.684   0.129 -1.8840 -2.1859  0.5910
  619SOL     MW 2476   2.682   0.720   0.063 -0.5900 -0.3728  0.1823
  620SOL     OW 2477   2.253   1.072   0.920 -0.0404  0.3878  0.6113
  620SOL    HW1 2478   2.302   1.033   0.849 -1.8823  0.6158  0.8706
  620SOL    HW2 2479   2.171   1.028   0.894  1.7134 -0.2403  1.2689
  620SOL     MW 2480   2.249   1.061   0.907 -0.0520  0.3350  0.7323
  621SOL     OW 2481   1.561   2.235   1.934 -0.2792 -0.0032 -0.1377
  621SOL    HW1 2482   1.512   2.171   1.988  0.9621 -1.1116  2.6620
  621SOL    HW2 2483   1.652   2.214   1.960  1.4827  1.9554  0.4021
  621SOL     MW 2484   1.566   2.224   1.944  0.1170  0.1090  0.3029
  622SOL     OW 2485   2.655   0.227   0.252 -0.2047  0.3829  0.1334
  622SOL    HW1 2486   2.751   0.254   0.254  1.2749 -0.4416 -2.1524
  622SOL    HW2 2487   2.655   0.136   0.279  0.6251  0.2034 -0.9262
  622SOL     MW 2488   2.667   0.218   0.256  0.1000  0.2504 -0.3080
  623SOL     OW 2489   2.432   2.738   0.866 -0.3033  0.2646 -0.0684
  623SOL    HW1 2490   2.495   2.805   0.868 -0.0484 -3.0512 -0.3332
  623SOL    HW2 2491   2.403   2.749   0.959 -0.9294 -1.1460 -2.3262
  623SOL     MW 2492   2.437   2.748   0.878 -0.3523 -0.3590 -0.4012
  624SOL     OW 2493   2.134   1.610   3.030  0.8771 -0.4094 -0.2161
  624SOL    HW1 2494   2.062   1.564   3.080 -1.2653 -0.6144  1.4739
  624SOL    HW2 2495   2.094   1.645   2.957  2.3996  0.1606  3.3381
  624SOL     MW 2496   2.119   1.609   3.027  0.7953 -0.3612  0.4759
  625SOL     OW 2497   2.212   1.931   1.095 -0.3747  0.6198  0.4564
  625SOL    HW1 2498   2.287   1.884   1.132 -0.5624 -1.7522 -0.2068
  625SOL    HW2 2499   2.231   1.955   1.006 -0.3391 -0.0070  0.9401
  625SOL     MW 2500   2.224   1.928   1.088 -0.3948  0.2241  0.4328
  626SOL     OW 2501   0.239   1.776   2.452 -0.0130  0.7034  0.3715
  626SOL    HW1 2502   0.196   1.709   2.507 -1.5325  1.0298  0.7223
  626SOL    HW2 2503   0.202   1.860   2.474  0.1485 -1.5137  0.3144
  626SOL     MW 2504   0.228   1.778   2.462 -0.1922  0.4540  0.4102
  627SOL     OW 2505   2.534   0.763   2.557  0.1368  0.3745  0.0430
  627SOL    HW1 2506   2.465   0.828   2.550  0.5172  0.5214  0.3660
  627SOL    HW2 2507   2.526   0.713   2.476 -0.1657  1.0133  1.6848
  627SOL     MW 2508   2.524   0.765   2.545  0.1471  0.4782  0.3022
  628SOL     OW 2509   2.237   1.357   1.311 -0.3144 -0.7304  0.2615
  628SOL    HW1 2510   2.192   1.274   1.299  0.1001 -1.3544  0.0389
  628SOL    HW2 2511   2.323   1.347   1.262  2.0371 -0.3156 -3.0178
  628SOL     MW 2512   2.242   1.344   1.303  0.0506 -0.7580 -0.2006
  629SOL     OW 2513   1.865   0.484   1.252 -0.0552 -0.5199  0.2863
  629SOL    HW1 2514   1.833   0.569   1.212 -2.5572  0.8314 -0.8798
  629SOL    HW2 2515   1.784   0.436   1.236  0.4625  0.5139  0.3599
  629SOL     MW 2516   1.850   0.489   1.244 -0.3170 -0.2052  0.1421
  630SOL     OW 2517   2.400   1.867   3.017  0.1496 -0.0590 -0.1974
  630SOL    HW1 2518   2.418   1.954   2.988  1.9775 -1.8652 -0.2522
  630SOL    HW2 2519   2.308   1.870   3.032 -1.1498 -2.3694 -0.1998
  630SOL     MW 2520   2.390   1.879   3.015  0.2193 -0.6022 -0.2049
  631SOL     OW 2521   2.003   1.682   1.557 -0.0514  0.0148 -0.2678
  631SOL    HW1 2522   2.000   1.597   1.599 -1.1247 -3.0930  1.8179
  631SOL    HW2 2523   1.921   1.687   1.506  1.4669  0.3479  1.9330
  631SOL     MW 2524   1.992   1.671   1.556  0.0073 -0.3513  0.2978
  632SOL     OW 2525   0.259   1.950   1.447  0.2515 -0.0043  0.6427
  632SOL    HW1 2526   0.198   1.967   1.527  2.2067 -1.1378 -0.5811
  632SOL    HW2 2527   0.299   1.866   1.451 -3.6933 -0.0093 -3.1501
  632SOL     MW 2528   0.256   1.941   1.458 -0.0110 -0.1545 -0.0192
  633SOL     OW 2529   2.530   0.542   0.286  0.8036 -0.7330  0.3656
  633SOL    HW1 2530   2.601   0.509   0.345  0.9880 -0.0809  1.3092
  633SOL    HW2 2531   2.502   0.462   0.237  0.1123  2.5365 -1.6077
  633SOL     MW 2532   2.535   0.527   0.287  0.7367 -0.2156  0.2297
  634SOL     OW 2533   2.703   3.082   0.650  0.4365 -0.5098 -0.3460
  634SOL    HW1 2534   2.734   3.170   0.650 -0.1585  0.0583 -0.2103
  634SOL    HW2 2535   2.657   3.074   0.569  0.3569  0.9534 -0.7649
  634SOL     MW 2536   2.701   3.093   0.639  0.3475 -0.2418 -0.3833
  635SOL     OW 2537   2.581   0.147   1.824  0.0056 -0.4830  0.2671
  635SOL    HW1 2538   2.646   0.082   1.790  0.6429 -1.2926 -0.6415
  635SOL    HW2 2539   2.640   0.228   1.839  0.6247  0.5378 -0.4628
  635SOL     MW 2540   2.598   0.149   1.821  0.1713 -0.4551  0.0509
  636SOL     OW 2541   2.780   1.582   0.862  0.0085 -0.0312  0.0810
  636SOL    HW1 2542   2.686   1.561   0.881 -0.2754  1.9909 -1.4273
  636SOL    HW2 2543   2.800   1.661   0.914 -1.4428 -0.3492 -1.7561
  636SOL     MW 2544   2.770   1.590   0.871 -0.2204  0.1936 -0.3604
  637SOL     OW 2545   2.892   1.516   0.607 -0.2991  0.3885  0.4300
  637SOL    HW1 2546   2.956   1.586   0.587  3.8793 -0.7492  3.5736
  637SOL    HW2 2547   2.856   1.535   0.694  0.0964 -0.6417 -1.0197
  637SOL     MW 2548   2.896   1.527   0.616  0.3044  0.1025  0.6535
  638SOL     OW 2549   2.715   0.524   0.515  0.0048  0.1113  0.0395
  638SOL    HW1 2550   2.805   0.543   0.480  0.7444  0.0512  2.6516
  638SOL    HW2 2551   2.733   0.506   0.607 -0.4402 -0.7082  2.2095
  638SOL     MW 2552   2.729   0.524   0.522  0.0436 -0.0048  0.6704
  639SOL     OW 2553   1.729   0.032   0.513 -0.2206 -0.2945 -0.3361
  639SOL    HW1 2554   1.634   0.041   0.511  2.5923  0.2757  0.0255
  639SOL    HW2 2555   1.759  -0.041   0.455  3.6423 -0.9522 -0.7012
  639SOL     MW 2556   1.721   0.024   0.505  0.6602 -0.3061 -0.3366
  640SOL     OW 2557   0.307   1.339   0.080  0.3122 -0.1050 -0.0681
  640SOL    HW1 2558   0.319   1.317  -0.015 -3.4129 -0.1519 -0.7231
  640SOL    HW2 2559   0.295   1.258   0.134 -0.3343 -3.3762 -4.2031
  640SOL     MW 2560   0.307   1.325   0.075 -0.2646 -0.5428 -0.7001
  641SOL     OW 2561   2.221   0.440   0.412 -0.0716 -0.5156 -0.2470
  641SOL    HW1 2562   2.217   0.407   0.318 -1.6383 -0.1807 -0.0801
  641SOL    HW2 2563   2.305   0.407   0.457  1.0833 -1.6055 -1.1109
  641SOL     MW 2564   2.232   0.431   0.406 -0.1259 -0.6152 -0.3390
  642SOL     OW 2565   0.077   0.000   0.487  0.0952  0.0134  0.1010
  642SOL    HW1 2566   0.046   0.086   0.445  0.8375  1.8076  2.0924
  642SOL    HW2 2567   0.004  -0.044   0.529 -0.3126 -2.3140  1.1902
  642SOL     MW 2568   0.063   0.006   0.487  0.1393 -0.0570  0.5075
  643SOL     OW 2569   1.999   0.333   1.735 -0.0331 -0.2007 -0.1491
  643SOL    HW1 2570   1.932   0.317   1.802  0.5734 -0.3556 -3.2527
  643SOL    HW2 2571   1.988   0.272   1.661  0.7633  0.7569 -0.6004
  643SOL     MW 2572   1.988   0.323   1.734  0.1520 -0.0948 -0.6181
  644SOL     OW 2573   2.679   1.853   1.003  0.3295  0.1797 -0.3952
  644SOL    HW1 2574   2.671   1.786   1.074  0.9370  0.7510 -0.4046
  644SOL    HW2 2575   2.593   1.877   0.971 -2.3106 -3.5830  1.0843
  644SOL     MW 2576   2.667   1.847   1.008  0.0613 -0.2414 -0.2012
  645SOL     OW 2577   2.815   0.827   0.728  0.0172  0.4772  0.1988
  645SOL    HW1 2578   2.897   0.771   0.730  0.4224 -1.1894  0.8718
  645SOL    HW2 2579   2.748   0.769   0.758  2.5051  0.9344  1.8201
  645SOL     MW 2580   2.817   0.812   0.732  0.3989  0.3177  0.5015
  646SOL     OW 2581   0.085   2.288   0.873 -0.0482  0.1930  0.1068
  646SOL    HW1 2582   0.125   2.211   0.828 -0.9038 -0.1403 -0.1076
  646SOL    HW2 2583   0.013   2.306   0.817 -0.2813  3.5419 -1.2923
  646SOL     MW 2584   0.081   2.280   0.860 -0.1918  0.5909 -0.1061
  647SOL     OW 2585   2.720   0.481   2.982 -0.0052  0.1793  0.0329
  647SOL    HW1 2586   2.666   0.434   3.045  0.2140 -1.8407 -3.4477
  647SOL    HW2 2587   2.729   0.570   3.018 -2.8842  0.5723  0.4638
  647SOL     MW 2588   2.714   0.487   2.995 -0.3562 -0.0354 -0.3695
  648SOL     OW 2589   2.250   0.737   1.095  0.7599  0.1230  0.5445
  648SOL    HW1 2590   2.188   0.663   1.094 -1.0227  0.5813 -1.3707
  648SOL    HW2 2591   2.215   0.794   1.160  2.0957 -0.6579 -1.3319
  648SOL     MW 2592   2.237   0.735   1.103  0.7009  0.0804  0.0443
  649SOL     OW 2593   2.416   2.708   1.319 -0.5001 -0.0354 -0.2468
  649SOL    HW1 2594   2.509   2.744   1.322 -0.9305 -1.1948 -1.4327
  649SOL    HW2 2595   2.418   2.618   1.279  0.3798  2.2995 -1.2675
  649SOL     MW 2596   2.429   2.701   1.314 -0.4408  0.1197 -0.5380
  650SOL     OW 2597   2.783   0.234   0.676 -0.3779 -0.1887 -0.5494
  650SOL    HW1 2598   2.810   0.204   0.761  0.4881 -1.8817 -1.3572
  650SOL    HW2 2599   2.858   0.231   0.619 -0.9110 -1.3499 -2.6402
  650SOL     MW 2600   2.796   0.230   0.680 -0.3340 -0.5653 -0.9318
  651SOL     OW 2601   0.008   0.443   1.039 -0.4386  0.3248 -0.2075
  651SOL    HW1 2602   0.064   0.467   0.964  1.2368  1.2611  0.4203
  651SOL    HW2 2603  -0.058   0.509   1.054  0.3697 -0.6172 -0.4699
  651SOL     MW 2604   0.007   0.455   1.031 -0.1109  0.3240 -0.1593
  652SOL     OW 2605   2.385   1.491   3.017 -0.3732  0.4229 -0.0784
  652SOL    HW1 2606   2.464   1.528   2.972 -1.9568 -0.8151 -0.3194
  652SOL    HW2 2607   2.309   1.543   3.008  0.0715 -0.3414 -2.1822
  652SOL     MW 2608   2.385   1.503   3.010 -0.5235  0.1587 -0.3878
  653SOL     OW 2609   1.834   0.457   0.331  0.1703 -0.1577 -0.4584
  653SOL    HW1 2610   1.815   0.399   0.260 -2.0037 -0.9925  0.6167
  653SOL    HW2 2611   1.908   0.511   0.306  0.6469 -1.1659  2.4282
  653SOL     MW 2612   1.841   0.457   0.318 -0.0537 -0.4008  0.0643
  654SOL     OW 2613   2.423   1.004   0.729  0.4274 -0.1712  0.3104
  654SOL    HW1 2614   2.375   0.987   0.647  1.2440 -0.4249  2.0685
  654SOL    HW2 2615   2.485   0.922   0.753  0.2040  3.2625  0.6797
  654SOL     MW 2616   2.425   0.991   0.722  0.5056  0.2484  0.5911
  655SOL     OW 2617   2.885   0.852   0.368 -0.4272 -0.0277 -0.0757
  655SOL    HW1 2618   2.892   0.890   0.453  1.0999 -0.0604 -0.6251
  655SOL    HW2 2619   2.881   0.759   0.388  1.3082  2.4255  1.7688
  655SOL     MW 2620   2.886   0.845   0.382  0.0032  0.2916  0.0951
  656SOL     OW 2621   1.781   2.643   1.357  0.1850  0.1051  0.5955
  656SOL    HW1 2622   1.817   2.726   1.380 -1.8531 -1.6323  2.9288
  656SOL    HW2 2623   1.852   2.584   1.326 -0.0297  0.9591 -1.2637
  656SOL     MW 2624   1.795   2.646   1.356 -0.1122 -0.0114  0.6581
  657SOL     OW 2625   0.145   1.775   1.140  0.0172 -0.3832 -0.1724
  657SOL    HW1 2626   0.187   1.846   1.083  0.4722  0.6351 -2.0379
  657SOL    HW2 2627   0.191   1.697   1.131 -1.7836  0.4916 -0.1393
  657SOL     MW 2628   0.157   1.774   1.132 -0.1604 -0.1334 -0.4141
  658SOL     OW 2629   2.634   1.309   0.243  0.1895 -0.2163  0.2601
  658SOL    HW1 2630   2.615   1.220   0.284 -1.0339  1.7442  0.7969
  658SOL    HW2 2631   2.650   1.374   0.314  0.2562  1.3724  0.2279
  658SOL     MW 2632   2.634   1.306   0.258  0.0369  0.2520  0.3267
  659SOL     OW 2633   2.205   1.550   0.976  0.0996  0.4096 -0.1328
  659SOL    HW1 2634   2.298   1.555   0.955  0.5584 -0.5003  2.7384
  659SOL    HW2 2635   2.197   1.620   1.042 -1.9789 -0.1966  5.8127
  659SOL     MW 2636   2.216   1.560   0.982 -0.1141  0.2096  1.0305
  660SOL     OW 2637   2.097   1.461   1.727  0.0538 -0.1755  0.0107
  660SOL    HW1 2638   2.092   1.515   1.803  1.3128 -1.5820  0.4686
  660SOL    HW2 2639   2.010   1.416   1.719 -0.6437 -0.8457 -2.0081
  660SOL     MW 2640   2.085   1.462   1.736  0.1279 -0.4495 -0.1953
  661SOL     OW 2641   2.491   0.965   0.190 -0.0967  0.4972 -0.3163
  661SOL    HW1 2642   2.557   0.972   0.263  3.3640  2.4082  0.8183
  661SOL    HW2 2643   2.428   0.906   0.226 -0.8782  1.0807 -3.2443
  661SOL     MW 2644   2.491   0.958   0.205  0.2568  0.8264 -0.5529
  662SOL     OW 2645   2.595   2.978   0.894 -0.1077  0.0378 -0.0933
  662SOL    HW1 2646   2.521   3.035   0.918  0.7681 -2.1113  0.8019
  662SOL    HW2 2647   2.633   3.014   0.810  2.0972 -1.5036 -0.5446
  662SOL     MW 2648   2.590   2.990   0.886  0.2988 -0.4491 -0.0348
  663SOL     OW 2649   2.653   1.482   0.449  0.1638 -0.1084 -0.0772
  663SOL    HW1 2650   2.614   1.562   0.417 -0.2222 -2.6314 -1.0978
  663SOL    HW2 2651   2.722   1.511   0.511  3.7909 -1.6428  0.4715
  663SOL     MW 2652   2.657   1.496   0.453  0.5914 -0.6438 -0.1395
  664SOL     OW 2653   2.598   1.528   1.601 -0.1430 -1.0603 -0.4232
  664SOL    HW1 2654   2.591   1.626   1.583  0.6557  1.1440  0.0295
  664SOL    HW2 2655   2.512   1.498   1.588  1.9045  0.0833  4.4034
  664SOL     MW 2656   2.586   1.537   1.597  0.2325 -0.6186  0.2733
  665SOL     OW 2657   2.776   0.769   2.097 -0.1119 -0.3466  0.2911
  665SOL    HW1 2658   2.806   0.830   2.028  1.5890 -1.5451 -0.3203
  665SOL    HW2 2659   2.856   0.723   2.121  0.8177  0.1738  0.2908
  665SOL     MW 2660   2.791   0.771   2.091  0.2352 -0.4360  0.2104
  666SOL     OW 2661   2.752   3.049   1.735 -0.1220 -0.0737  0.0052
  666SOL    HW1 2662   2.773   3.059   1.637  1.3697  2.7044  0.7744
  666SOL    HW2 2663   2.704   2.963   1.743 -1.5909 -0.1635 -0.5401
  666SOL     MW 2664   2.749   3.039   1.723 -0.1190  0.2810  0.0347
  667SOL     OW 2665   1.981   2.704   1.707  0.0426 -0.0008 -0.2737
  667SOL    HW1 2666   2.002   2.673   1.794 -0.1310  2.1403  0.4202
  667SOL    HW2 2667   2.052   2.765   1.686  1.4120  2.5689 -0.0279
  667SOL     MW 2668   1.993   2.708   1.716  0.2003  0.6207 -0.1497
  668SOL     OW 2669   2.691   0.527   0.813  0.3009  0.4030 -0.1853
  668SOL    HW1 2670   2.783   0.540   0.846  2.0053 -1.6534  2.2958
  668SOL    HW2 2671   2.640   0.596   0.858  1.8903  0.5563 -0.7990
  668SOL     MW 2672   2.697   0.538   0.823  0.7354  0.1519  0.0611
  669SOL     OW 2673   0.115   0.905   0.760  0.1411  0.1977  0.4637
  669SOL    HW1 2674   0.081   0.977   0.813  0.0914  0.9192 -2.6342
  669SOL    HW2 2675   0.185   0.879   0.818  0.9093 -1.1960  0.1331
  669SOL     MW 2676   0.120   0.911   0.775  0.2359  0.1090  0.0113
  670SOL     OW 2677   2.913   0.329   0.210 -0.4229 -0.4141 -0.0862
  670SOL    HW1 2678   2.931   0.297   0.118 -0.2213  0.0380  0.7342
  670SOL    HW2 2679   2.917   0.426   0.203  1.4722 -1.5583  0.8894
  670SOL     MW 2680   2.916   0.337   0.197 -0.1463 -0.5054  0.1508
  671SOL     OW 2681   1.993   3.040   1.581  0.1405 -0.1014  0.0078
  671SOL    HW1 2682   1.945   2.992   1.510  0.4112 -2.0158 -0.5192
  671SOL    HW2 2683   1.923   3.055   1.648 -1.0057  0.5998 -2.1333
  671SOL     MW 2684   1.978   3.036   1.580  0.0250 -0.2615 -0.3442
  672SOL     OW 2685   1.844   1.692   1.293 -0.6092  0.5363  0.2488
  672SOL    HW1 2686   1.818   1.756   1.358  1.0152 -0.5505 -1.0438
  672SOL    HW2 2687   1.903   1.731   1.227 -1.1670  1.6069 -2.1251
  672SOL     MW 2688   1.849   1.705   1.293 -0.4685  0.5342 -0.2350
  673SOL     OW 2689   2.770   1.088   0.642 -0.2425 -0.6568  0.6143
  673SOL    HW1 2690   2.805   1.010   0.681  2.0318 -1.2373  3.3965
  673SOL    HW2 2691   2.840   1.150   0.628  0.6095 -1.1401 -1.5154
  673SOL     MW 2692   2.784   1.086   0.645  0.1700 -0.7972  0.7004
  674SOL     OW 2693   2.466   0.008   1.278  0.6961  0.0836  0.3342
  674SOL    HW1 2694   2.421   0.008   1.197 -0.2347 -2.2970  4.1736
  674SOL    HW2 2695   2.503  -0.079   1.290 -1.9293  0.7286  2.4863
  674SOL     MW 2696   2.465  -0.004   1.269  0.2269 -0.1454  1.1247
  675SOL     OW 2697   2.982   0.905   1.062 -0.5479  0.3925 -0.8542
  675SOL    HW1 2698   3.037   0.898   1.136 -1.2036 -2.0657 -1.2302
  675SOL    HW2 2699   3.020   0.980   1.010  3.1765  2.2133 -1.3918
  675SOL     MW 2700   2.995   0.914   1.065 -0.1430  0.3084 -0.9748
  676SOL     OW 2701   2.972   1.443   1.692 -0.2860  0.0002 -0.1315
  676SOL    HW1 2702   2.903   1.373   1.681 -0.2829 -3.9453  1.9535
  676SOL    HW2 2703   3.011   1.414   1.774 -0.1892 -2.1172 -5.3975
  676SOL     MW 2704   2.968   1.430   1.702 -0.2729 -0.7997 -0.5512
  677SOL     OW 2705   2.355   0.593   2.040  0.2126 -0.2430  0.5243
  677SOL    HW1 2706   2.300   0.558   1.970 -3.0644  0.4126 -2.0545
  677SOL    HW2 2707   2.361   0.686   2.018  0.8839 -2.5907  1.4949
  677SOL     MW 2708   2.348   0.600   2.028 -0.1312 -0.4663  0.3121
  678SOL     OW 2709   2.477   1.681   0.351 -0.3258 -0.4445 -0.2432
  678SOL    HW1 2710   2.401   1.719   0.390  1.8455  0.7843 -0.0605
  678SOL    HW2 2711   2.445   1.612   0.298  1.7475 -2.5379 -0.4188
  678SOL     MW 2712   2.463   1.677   0.349  0.2343 -0.5586 -0.2423
  679SOL     OW 2713   2.183   0.454   1.314  0.0836 -0.1986 -0.3593
  679SOL    HW1 2714   2.180   0.361   1.285  0.0819  0.4070 -2.4830
  679SOL    HW2 2715   2.129   0.451   1.393 -1.4553 -1.0784 -2.9912
  679SOL     MW 2716   2.176   0.442   1.321 -0.1197 -0.2347 -0.9867
  680SOL     OW 2717   2.354   0.175   1.497 -0.5460 -0.1723  0.2168
  680SOL    HW1 2718   2.272   0.199   1.467 -1.5009  1.1153  1.6317
  680SOL    HW2 2719   2.376   0.108   1.425 -1.7758 -1.5148  0.1178
  680SOL     MW 2720   2.346   0.169   1.484 -0.8342 -0.1795  0.3904
  681SOL     OW 2721   0.279   0.615   1.578 -0.3807 -0.0995 -0.0900
  681SOL    HW1 2722   0.244   0.565   1.660  0.2341 -0.6335  0.4564
  681SOL    HW2 2723   0.301   0.544   1.516  0.8973 -1.4349  0.5473
  681SOL     MW 2724   0.277   0.599   1.581 -0.1309 -0.3461  0.0662
  682SOL     OW 2725   0.141   2.810   1.521  0.1519  0.1348 -0.2054
  682SOL    HW1 2726   0.208   2.856   1.574 -2.1048  0.5584  1.5918
  682SOL    HW2 2727   0.061   2.863   1.540 -2.8734 -0.5635  2.0207
  682SOL     MW 2728   0.139   2.823   1.531 -0.5450  0.0986  0.3254
  683SOL     OW 2729   2.058   0.820   2.962 -0.0639 -0.3073  0.0536
  683SOL    HW1 2730   2.009   0.766   3.026  1.9134  0.1198  0.0085
  683SOL    HW2 2731   2.047   0.916   2.999  0.0470  2.6751  1.8527
  683SOL     MW 2732   2.050   0.826   2.976  0.2116  0.1425  0.2850
  684SOL     OW 2733   2.242   1.664   0.691 -0.4195  0.4642 -0.1715
  684SOL    HW1 2734   2.209   1.697   0.605  1.0089 -0.2941  1.6072
  684SOL    HW2 2735   2.166   1.640   0.739 -1.5891 -0.3760 -2.4463
  684SOL     MW 2736   2.228   1.665   0.686 -0.3854  0.2533 -0.2370
  685SOL     OW 2737   2.687   1.686   1.248 -0.2179 -0.5414 -0.7352
  685SOL    HW1 2738   2.741   1.726   1.315  1.3672  0.5121 -0.3775
  685SOL    HW2 2739   2.697   1.594   1.274 -0.7257  2.0869 -0.0451
  685SOL     MW 2740   2.695   1.679   1.261 -0.0758 -0.0557 -0.5969
  686SOL     OW 2741   2.863   0.716   1.433  0.0238 -0.2000 -0.0718
  686SOL    HW1 2742   2.851   0.656   1.513  0.8189  1.5939  2.7346
  686SOL    HW2 2743   2.953   0.737   1.453 -3.1451  1.6238 -1.7321
  686SOL     MW 2744   2.873   0.711   1.446 -0.2894  0.2773  0.0794
  687SOL     OW 2745   2.147   0.210   1.218 -0.0044 -0.1542  0.6576
  687SOL    HW1 2746   2.222   0.173   1.170  0.4239 -1.2518 -0.6963
  687SOL    HW2 2747   2.083   0.250   1.148 -0.0656 -1.8349 -0.0518
  687SOL     MW 2748   2.148   0.210   1.202  0.0440 -0.5208  0.3854
  688SOL     OW 2749   2.392   0.605   1.472 -0.0224  0.4774  0.3237
  688SOL    HW1 2750   2.324   0.541   1.441 -0.3804  2.1683 -0.2936
  688SOL    HW2 2751   2.354   0.641   1.551 -0.8884 -0.8430 -1.7495
  688SOL     MW 2752   2.378   0.601   1.478 -0.1839  0.5263 -0.0312
  689SOL     OW 2753   2.429   0.713   2.898 -0.3348  0.1334  0.2390
  689SOL    HW1 2754   2.383   0.794   2.883 -0.7984 -1.7569 -0.3116
  689SOL    HW2 2755   2.523   0.737   2.902  2.5748  1.4141 -0.5758
  689SOL     MW 2756   2.435   0.727   2.897 -0.0121  0.0530  0.0588
  690SOL     OW 2757   2.023   0.884   1.874  0.8222  0.7910 -0.6510
  690SOL    HW1 2758   1.996   0.789   1.878  2.8481  0.3628  1.9621
  690SOL    HW2 2759   2.039   0.906   1.781 -1.3102  1.7791 -2.6232
  690SOL     MW 2760   2.022   0.874   1.862  0.8081  0.8649 -0.5664
  691SOL     OW 2761   2.370   0.241   0.836 -0.2992  0.0878  0.0106
  691SOL    HW1 2762   2.435   0.285   0.891  0.5938 -2.6357 -1.4865
  691SOL    HW2 2763   2.288   0.296   0.839 -2.1344 -1.0269  0.5196
  691SOL     MW 2764   2.367   0.254   0.844 -0.4235 -0.4186 -0.1198
  692SOL     OW 2765   2.886   1.639   1.491  0.6435 -0.0423  0.8469
  692SOL    HW1 2766   2.907   1.607   1.583  2.9868  0.1615 -0.4558
  692SOL    HW2 2767   2.916   1.730   1.491  2.2126  0.7442  0.3709
  692SOL     MW 2768   2.893   1.647   1.503  1.1597  0.0883  0.6122
  693SOL     OW 2769   2.276   0.399   0.073 -0.2171 -0.2813 -0.1689
  693SOL    HW1 2770   2.192   0.354   0.063  0.3093  1.3361 -2.1397
  693SOL    HW2 2771   2.257   0.489   0.056  1.1418 -0.7233  1.4407
  693SOL     MW 2772   2.262   0.405   0.069  0.0316 -0.1262 -0.2166
  694SOL     OW 2773   1.924   1.185   1.093  0.4647 -0.3031 -0.9093
  694SOL    HW1 2774   2.006   1.160   1.143  3.2576  2.0323 -1.0229
  694SOL    HW2 2775   1.865   1.107   1.105  0.0584 -1.5109 -2.7434
  694SOL     MW 2776   1.927   1.172   1.101  0.7796 -0.1543 -1.1663
  695SOL     OW 2777   3.020   1.441   1.321 -0.3906 -0.5502  0.1215
  695SOL    HW1 2778   2.989   1.471   1.236 -0.1646  1.2710  1.4193
  695SOL    HW2 2779   2.967   1.494   1.389  0.3882  0.7283 -0.3553
  695SOL     MW 2780   3.009   1.452   1.319 -0.2580 -0.1412  0.2298
  696SOL     OW 2781   2.086   1.356   0.782  0.0655 -0.0817 -0.4213
  696SOL    HW1 2782   2.128   1.398   0.861 -0.7575  1.7039 -2.1728
  696SOL    HW2 2783   2.019   1.297   0.819 -3.0848 -1.5490  2.8931
  696SOL     MW 2784   2.083   1.354   0.797 -0.4587 -0.0397 -0.2151
  697SOL     OW 2785   2.872   1.007   2.216 -0.3361 -0.4126 -0.2536
  697SOL    HW1 2786   2.812   1.072   2.191  2.0234  1.9787  3.1059
  697SOL    HW2 2787   2.835   0.920   2.205 -0.3108  1.1982 -0.4213
  697SOL     MW 2788   2.860   1.004   2.211 -0.0214  0.1154  0.1676
  698SOL     OW 2789   2.526   0.345   0.039 -0.1194 -0.4645 -0.2029
  698SOL    HW1 2790   2.426   0.365   0.051 -0.3176  0.7297  1.4991
  698SOL    HW2 2791   2.573   0.309   0.112 -0.1212  1.9964  1.6243
  698SOL     MW 2792   2.519   0.343   0.050 -0.1458  0.0178  0.2627
  699SOL     OW 2793   1.865   1.587   2.046  0.1401  0.5629 -0.2159
  699SOL    HW1 2794   1.818   1.502   2.032  1.0358  1.7530  1.4424
  699SOL    HW2 2795   1.964   1.578   2.060  1.0571 -0.5089  1.3872
  699SOL     MW 2796   1.872   1.575   2.046  0.3793  0.5785  0.2144
  700SOL     OW 2797   2.739   0.915   1.569 -0.1361 -0.0811  0.7562
  700SOL    HW1 2798   2.753   0.987   1.501  0.7025  2.4683  1.4187
  700SOL    HW2 2799   2.786   0.838   1.540 -0.3835 -0.0677  2.1767
  700SOL     MW 2800   2.747   0.914   1.556 -0.0581  0.2570  1.0310
  701SOL     OW 2801   1.700   1.176   2.480 -0.0114 -0.3175  0.2225
  701SOL    HW1 2802   1.795   1.173   2.485  0.9264  0.3881 -0.0628
  701SOL    HW2 2803   1.665   1.257   2.532  0.6680 -1.5139  0.9343
  701SOL     MW 2804   1.708   1.186   2.487  0.2019 -0.3822  0.2788
  702SOL     OW 2805   2.146   0.393   0.826  0.2911 -0.3643 -0.4448
  702SOL    HW1 2806   2.110   0.319   0.778 -0.1294 -1.4475  0.3137
  702SOL    HW2 2807   2.192   0.455   0.761  1.3332 -0.5376 -1.9070
  702SOL     MW 2808   2.147   0.391   0.811  0.3731 -0.5301 -0.5377
  703SOL     OW 2809   2.687   1.260   1.040 -0.2983 -0.0044  0.1307
  703SOL    HW1 2810   2.635   1.229   0.963  1.1951  0.1444 -1.1327
  703SOL    HW2 2811   2.709   1.182   1.083  0.9574  0.3740  0.7895
  703SOL     MW 2812   2.683   1.246   1.036  0.0644  0.0652  0.0509
  704SOL     OW 2813   3.100   1.207   0.145 -0.0272  0.2688  0.4639
  704SOL    HW1 2814   3.010   1.208   0.106 -0.2089  1.1487  1.9903
  704SOL    HW2 2815   3.079   1.207   0.237 -1.9939 -2.1340  1.0384
  704SOL     MW 2816   3.085   1.207   0.152 -0.3106  0.0678  0.7411
  705SOL     OW 2817   2.192   1.642   1.272 -0.0271  0.4293  0.3132
  705SOL    HW1 2818   2.127   1.649   1.343  1.5368  0.2581  0.3306
  705SOL    HW2 2819   2.197   1.546   1.254  2.1807 -0.2483  0.5501
  705SOL     MW 2820   2.184   1.630   1.279  0.4706  0.3173  0.3468
  706SOL     OW 2821   2.989   1.250   0.647 -0.9380  0.0743 -0.1152
  706SOL    HW1 2822   3.042   1.244   0.566  1.4210  1.1798 -3.5667
  706SOL    HW2 2823   2.953   1.342   0.642 -0.7032  1.9976 -1.3409
  706SOL     MW 2824   2.991   1.261   0.636 -0.5958  0.4739 -0.7323
  707SOL     OW 2825   2.298   0.039   1.033  0.4092  0.0056 -0.2684
  707SOL    HW1 2826   2.306   0.119   0.978  1.0940 -2.6177 -0.4860
  707SOL    HW2 2827   2.222  -0.000   0.990  1.6973  1.1616  0.3403
  707SOL     MW 2828   2.289   0.045   1.020  0.6695 -0.1880 -0.2168
  708SOL     OW 2829   2.402   1.453   0.199  0.1680 -0.2874 -0.1623
  708SOL    HW1 2830   2.477   1.392   0.194  2.5104  2.3330 -0.6487
  708SOL    HW2 2831   2.386   1.477   0.106 -1.8382  4.1183  0.1434
  708SOL     MW 2832   2.410   1.448   0.186  0.2124  0.6396 -0.1861
  709SOL     OW 2833   1.774   1.653   0.241 -0.1442 -0.3905 -0.6466
  709SOL    HW1 2834   1.745   1.655   0.149  1.6863 -0.0333 -1.8406
  709SOL    HW2 2835   1.686   1.649   0.280 -1.0251 -1.4335 -1.1355
  709SOL     MW 2836   1.759   1.653   0.234 -0.0189 -0.4810 -0.8687
  710SOL     OW 2837   2.162   1.091   1.184 -0.0135  0.4044 -0.0649
  710SOL    HW1 2838   2.196   1.067   1.095  0.2725  0.8200  1.7978
  710SOL    HW2 2839   2.183   1.018   1.241 -1.0703  0.8050 -1.7629
  710SOL     MW 2840   2.169   1.078   1.180 -0.1152  0.5121 -0.0432
  711SOL     OW 2841   2.317   0.110   1.747 -0.0421 -0.4097  0.0907
  711SOL    HW1 2842   2.407   0.123   1.786  1.6360  0.7157 -1.2090
  711SOL    HW2 2843   2.335   0.127   1.651 -0.3151  0.5209  1.9869
  711SOL     MW 2844   2.331   0.114   1.740  0.1433 -0.1385  0.1694
  712SOL     OW 2845   1.896   0.640   0.002  0.3447  0.0940 -0.4249
  712SOL    HW1 2846   1.831   0.664  -0.070 -1.1607  2.0466 -0.7450
  712SOL    HW2 2847   1.870   0.700   0.076  0.7667 -2.4657  2.1533
  712SOL     MW 2848   1.884   0.651   0.003  0.2017  0.0139 -0.1270
  713SOL     OW 2849   2.539   0.756   1.095 -0.2997 -0.4541  0.1616
  713SOL    HW1 2850   2.550   0.672   1.134 -0.1938 -0.8061  2.5118
  713SOL    HW2 2851   2.439   0.752   1.089 -4.3286 -2.8400 -0.3774
  713SOL     MW 2852   2.527   0.744   1.099 -0.8173 -0.8153  0.4006
  714SOL     OW 2853   2.172   0.167   1.993  0.7086 -0.2882 -0.0893
  714SOL    HW1 2854   2.238   0.103   2.032  1.7858  0.7493  0.3213
  714SOL    HW2 2855   2.190   0.151   1.898 -1.2683  1.3830  1.8826
  714SOL     MW 2856   2.183   0.156   1.985  0.5899  0.0692  0.2250
  715SOL     OW 2857   1.818   1.990   1.717  0.6664  0.9009  0.5020
  715SOL    HW1 2858   1.904   2.041   1.694  0.7260  0.6740 -1.5727
  715SOL    HW2 2859   1.826   1.937   1.799  1.6987  1.1907  0.8926
  715SOL     MW 2860   1.830   1.990   1.725  0.8105  0.9092  0.2798
  716SOL     OW 2861   2.306   0.566   0.711  0.0773 -0.4353 -0.2708
  716SOL    HW1 2862   2.362   0.518   0.651  0.8037  1.3910 -3.0537
  716SOL    HW2 2863   2.253   0.624   0.651  0.4384  0.0072 -1.6019
  716SOL     MW 2864   2.307   0.567   0.695  0.2208 -0.1359 -0.8136
  717SOL     OW 2865   2.837   1.581   2.877  0.5465  0.4518  0.2038
  717SOL    HW1 2866   2.932   1.577   2.904 -1.3741 -2.3456  1.1944
  717SOL    HW2 2867   2.796   1.660   2.916 -1.9967 -0.5355  0.6522
  717SOL     MW 2868   2.844   1.591   2.886 -0.0424 -0.0475  0.3937
  718SOL     OW 2869   2.682   1.414   1.376 -0.9098  0.7336 -0.1238
  718SOL    HW1 2870   2.667   1.445   1.467  4.4452 -0.4567  1.8122
  718SOL    HW2 2871   2.705   1.318   1.372  0.0552 -0.2726 -1.6573
  718SOL     MW 2872   2.683   1.405   1.387 -0.0760  0.4438 -0.0707
  719SOL     OW 2873   2.190   1.266   0.556  0.5711 -0.5070 -0.3653
  719SOL    HW1 2874   2.282   1.296   0.548 -1.6831 -1.0970 -0.7306
  719SOL    HW2 2875   2.166   1.305   0.644  1.7343  0.5168 -1.9611
  719SOL     MW 2876   2.199   1.275   0.566  0.4271 -0.4498 -0.6241
  720SOL     OW 2877   2.843   1.218   0.040 -0.6057  0.0258 -0.2923
  720SOL    HW1 2878   2.828   1.136   0.087 -0.5231 -0.4912  2.0345
  720SOL    HW2 2879   2.798   1.287   0.085 -2.4497 -0.7486  1.1195
  720SOL     MW 2880   2.835   1.216   0.052 -0.8381 -0.1446  0.2010
  721SOL     OW 2881   2.493   0.892   1.396 -0.2117  0.2268 -0.1010
  721SOL    HW1 2882   2.518   0.801   1.425 -1.2739 -2.0138 -2.8941
  721SOL    HW2 2883   2.527   0.944   1.466 -0.4067 -0.9164  2.3797
  721SOL     MW 2884   2.501   0.887   1.409 -0.3776 -0.2197 -0.1422
  722SOL     OW 2885   2.585   1.086   0.443  0.3718  0.0658 -1.1195
  722SOL    HW1 2886   2.523   1.139   0.490 -2.1356  1.8382  3.2231
  722SOL    HW2 2887   2.644   1.049   0.510  0.2592 -0.4930  0.5152
  722SOL     MW 2888   2.584   1.088   0.458  0.0261  0.2259 -0.3309
  723SOL     OW 2889   2.316   1.393   1.568  0.0655  0.0609 -0.1076
  723SOL    HW1 2890   2.294   1.397   1.472 -1.3668  0.5840 -1.4452
  723SOL    HW2 2891   2.226   1.413   1.605 -1.6111  0.1669 -0.2639
  723SOL     MW 2892   2.302   1.396   1.560 -0.3447  0.1439 -0.3047
  724SOL     OW 2893   2.466   0.366   0.565 -0.0764  0.1124 -0.3098
  724SOL    HW1 2894   2.470   0.316   0.645 -1.7708  1.3553  0.8908
  724SOL    HW2 2895   2.550   0.407   0.546  2.0946 -0.2263  0.4843
  724SOL     MW 2896   2.478   0.365   0.573 -0.0135  0.2317 -0.0466
  725SOL     OW 2897   2.606   0.520   1.185 -0.4226 -0.6426  0.1178
  725SOL    HW1 2898   2.699   0.511   1.211 -0.2446 -2.5892 -1.7886
  725SOL    HW2 2899   2.558   0.526   1.266 -2.4716  0.6616 -1.8548
  725SOL     MW 2900   2.612   0.520   1.199 -0.6694 -0.7274 -0.3940
  726SOL     OW 2901   2.581   2.502   0.550  0.0122  0.6254 -0.2992
  726SOL    HW1 2902   2.528   2.570   0.503 -1.9571 -1.4423  0.9521
  726SOL    HW2 2903   2.537   2.492   0.632  0.6219  2.2284 -1.2658
  726SOL     MW 2904   2.568   2.510   0.555 -0.1672  0.5641 -0.2616
  727SOL     OW 2905   2.875   0.325   1.758 -0.4340  0.4049  0.2280
  727SOL    HW1 2906   2.808   0.312   1.686  2.3139 -2.8616  2.4564
  727SOL    HW2 2907   2.831   0.346   1.843  0.4830 -0.7830  1.3989
  727SOL     MW 2908   2.860   0.326   1.760  0.0495 -0.1828  0.6765
  728SOL     OW 2909   2.797   1.131   2.878  0.2851 -0.0923 -0.0887
  728SOL    HW1 2910   2.809   1.202   2.813 -0.7294  0.7754  0.7859
  728SOL    HW2 2911   2.813   1.173   2.960  0.1971  1.4793 -1.4887
  728SOL     MW 2912   2.801   1.146   2.880  0.1397  0.2296 -0.1580
  729SOL     OW 2913   2.497   1.449   1.181 -0.0089 -0.0214  0.3774
  729SOL    HW1 2914   2.558   1.434   1.256 -0.5001  1.7189 -0.1761
  729SOL    HW2 2915   2.543   1.415   1.103 -1.8400 -0.3195 -0.2923
  729SOL     MW 2916   2.512   1.443   1.180 -0.3153  0.1689  0.2160
  730SOL     OW 2917   2.303   1.166   0.231 -0.0478 -0.0085  0.6710
  730SOL    HW1 2918   2.391   1.133   0.223 -2.9236  0.8652  0.9640
  730SOL    HW2 2919   2.297   1.261   0.216  4.0417 -0.3578  0.7343
  730SOL     MW 2920   2.314   1.174   0.228  0.1123  0.0607  0.7180
  731SOL     OW 2921   2.795   2.040   2.914  0.2547  0.5487  0.3081
  731SOL    HW1 2922   2.744   2.031   2.837  2.5407 -0.3756 -0.6257
  731SOL    HW2 2923   2.879   2.073   2.886 -0.9384 -1.4193  0.6380
  731SOL     MW 2924   2.799   2.043   2.900  0.3989  0.1671  0.2284
  732SOL     OW 2925   2.214   0.885   1.342 -0.0127 -0.3403 -0.0152
  732SOL    HW1 2926   2.173   0.915   1.424  0.3019  1.7830 -1.2865
  732SOL    HW2 2927   2.310   0.899   1.366 -2.3479  0.0830  2.3204
  732SOL     MW 2928   2.221   0.891   1.356 -0.2793 -0.0043  0.1252
  733SOL     OW 2929   2.367   2.819   3.016  0.6253  0.2365  0.4851
  733SOL    HW1 2930   2.288   2.871   3.006  1.4120  0.4125  1.2936
  733SOL    HW2 2931   2.358   2.727   2.981 -1.0562  1.1127 -1.0244
  733SOL     MW 2932   2.355   2.813   3.010  0.5072  0.3754  0.3926
  734SOL     OW 2933   1.436   0.315   2.446  0.1675 -0.4123  0.2370
  734SOL    HW1 2934   1.436   0.273   2.531 -0.2979 -1.3625 -0.8026
  734SOL    HW2 2935   1.483   0.251   2.390  0.2750  0.3143 -2.3207
  734SOL     MW 2936   1.442   0.301   2.450  0.1203 -0.4418 -0.2376
  735SOL     OW 2937   2.923   0.868   2.608  0.0639  0.0117  0.4385
  735SOL    HW1 2938   2.920   0.774   2.586 -3.2502  0.3469 -0.6097
  735SOL    HW2 2939   2.979   0.874   2.681 -0.1806  0.5580  0.3402
  735SOL     MW 2940   2.930   0.857   2.615 -0.4056  0.1280  0.2872
  736SOL     OW 2941   0.092   0.623   2.536  0.2582  0.5154  0.4379
  736SOL    HW1 2942   0.105   0.702   2.486 -0.9941  0.0049 -0.5089
  736SOL    HW2 2943   0.111   0.554   2.467  0.4895  3.0483 -0.5137
  736SOL     MW 2944   0.096   0.624   2.520  0.1235  0.7823  0.1874
  737SOL     OW 2945   2.911   0.598   2.607  0.2855 -0.2360  0.7116
  737SOL    HW1 2946   2.838   0.581   2.546 -0.4511  0.6991 -0.0907
  737SOL    HW2 2947   2.992   0.617   2.560 -0.0304  0.4416  0.3151
  737SOL     MW 2948   2.912   0.598   2.593  0.1466 -0.0232  0.5534
  738SOL     OW 2949   0.183   0.625   1.968  0.6606 -0.1794  0.1084
  738SOL    HW1 2950   0.276   0.627   1.961 -0.2030  0.6334 -1.2534
  738SOL    HW2 2951   0.158   0.538   1.939  2.3140 -1.1233 -0.5387
  738SOL     MW 2952   0.192   0.614   1.963  0.7648 -0.1967 -0.1566
  739SOL     OW 2953   2.495   0.982   2.036  0.3950  0.0718 -0.0549
  739SOL    HW1 2954   2.424   0.940   1.996  0.9334  1.5759 -1.3037
  739SOL    HW2 2955   2.496   1.071   1.996 -0.2861  0.1844  0.3488
  739SOL     MW 2956   2.486   0.988   2.025  0.3762  0.2851 -0.1664
  740SOL     OW 2957   0.216   1.747   2.946  0.2792 -0.1635  0.2524
  740SOL    HW1 2958   0.174   1.665   2.926  0.8126  1.0052  0.6765
  740SOL    HW2 2959   0.312   1.727   2.966  1.4653  0.1007 -0.2859
  740SOL     MW 2960   0.223   1.733   2.946  0.5061  0.0255  0.2373
  741SOL     OW 2961   2.211   1.158   2.730  0.2022  0.5472 -1.2153
  741SOL    HW1 2962   2.119   1.135   2.718 -0.0875 -2.2128  0.0220
  741SOL    HW2 2963   2.220   1.148   2.825 -0.1502  1.5610  0.2407
  741SOL     MW 2964   2.200   1.153   2.741  0.1175  0.3168 -0.8600
  742SOL     OW 2965   1.592   1.238   2.202  0.3679  0.3075 -0.1579
  742SOL    HW1 2966   1.535   1.163   2.196  1.6991  1.4937  0.5987
  742SOL    HW2 2967   1.631   1.243   2.289  1.1668 -2.1589  0.9191
  742SOL     MW 2968   1.590   1.229   2.213  0.6490  0.1386  0.0840
  743SOL     OW 2969   2.471   1.322   2.717 -0.6452  0.1067 -0.0406
  743SOL    HW1 2970   2.384   1.318   2.691  1.1211  1.2500  2.1786
  743SOL    HW2 2971   2.492   1.245   2.780 -0.3445 -0.3560  2.0715
  743SOL     MW 2972   2.462   1.311   2.722 -0.3725  0.1965  0.5309
  744SOL     OW 2973   2.760   0.934   1.858 -0.2549 -0.2777  0.6368
  744SOL    HW1 2974   2.678   0.969   1.890 -1.8412  2.7438 -0.3169
  744SOL    HW2 2975   2.752   0.941   1.762 -3.4006 -0.1026  0.4546
  744SOL     MW 2976   2.748   0.940   1.850 -0.8792  0.1440  0.4869
  745SOL     OW 2977   1.720   0.427   2.501  0.6469 -0.2403 -0.0586
  745SOL    HW1 2978   1.697   0.424   2.405 -0.7017  2.8602  0.8636
  745SOL    HW2 2979   1.636   0.414   2.546  0.6209  1.9365 -0.4852
  745SOL     MW 2980   1.706   0.425   2.494  0.4656  0.4560  0.0068
  746SOL     OW 2981   1.599   1.497   1.637 -0.4718  0.1848  0.1027
  746SOL    HW1 2982   1.687   1.452   1.640 -0.8601  0.1519 -0.7768
  746SOL    HW2 2983   1.565   1.469   1.722 -0.3889  3.3093  0.8198
  746SOL     MW 2984   1.606   1.487   1.649 -0.5121  0.5927  0.0813
  747SOL     OW 2985   2.567   1.140   1.825 -0.3092  0.0219 -0.1426
  747SOL    HW1 2986   2.480   1.127   1.789 -0.6595 -0.5902  1.4630
  747SOL    HW2 2987   2.561   1.227   1.876  0.8699  1.2639 -1.2880
  747SOL     MW 2988   2.555   1.150   1.827 -0.1999  0.1050 -0.0819
  748SOL     OW 2989   0.097   0.038   1.833 -0.1560 -0.0974  0.2602
  748SOL    HW1 2990   0.179   0.089   1.836  0.1994  0.6414  1.5138
  748SOL    HW2 2991   0.050   0.061   1.915 -0.9069  1.7928  1.3916
  748SOL     MW 2992   0.101   0.047   1.844 -0.2082  0.2494  0.5749
  749SOL     OW 2993   2.512   0.512   2.701 -0.0734  0.5859  0.1054
  749SOL    HW1 2994   2.552   0.576   2.643  1.4794  0.0002  1.1296
  749SOL    HW2 2995   2.484   0.556   2.784 -1.7826  1.8509  1.2016
  749SOL     MW 2996   2.514   0.526   2.705 -0.0940  0.6756  0.3851
  750SOL     OW 2997   2.015   3.043   1.998  0.0421 -0.5970  0.0092
  750SOL    HW1 2998   2.055   3.133   2.013  1.5181 -2.0884 -1.9124
  750SOL    HW2 2999   2.089   2.986   1.994 -0.5119 -0.9480  0.8047
  750SOL     MW 3000   2.030   3.047   2.000  0.1637 -0.8401 -0.1394
  751SOL     OW 3001   0.079   0.427   2.329  0.1367 -0.5829  0.1330
  751SOL    HW1 3002   0.064   0.344   2.372  3.4963  1.4349 -1.6378
  751SOL    HW2 3003   0.145   0.401   2.264  1.1941  0.2737 -1.7378
  751SOL     MW 3004   0.086   0.413   2.326  0.7195 -0.2036 -0.3475
  752SOL     OW 3005   2.146   0.791   2.689  0.0486 -0.5341  0.2397
  752SOL    HW1 3006   2.222   0.845   2.668 -0.5663 -0.6892  1.5200
  752SOL    HW2 3007   2.133   0.797   2.785 -0.0841 -1.9419  0.2899
  752SOL     MW 3008   2.154   0.799   2.699 -0.0501 -0.7403  0.4153
  753SOL     OW 3009   2.923   0.276   2.425  0.0151 -0.5291  0.1719
  753SOL    HW1 3010   2.856   0.220   2.394 -1.8228 -2.8313  1.6680
  753SOL    HW2 3011   2.886   0.355   2.387  0.1419  1.2723  1.1324
  753SOL     MW 3012   2.910   0.279   2.416 -0.2106 -0.5952  0.4960
  754SOL     OW 3013   2.251   2.959   2.608  0.5797 -0.6329 -0.6316
  754SOL    HW1 3014   2.266   2.942   2.516 -1.3002  1.2479  0.5830
  754SOL    HW2 3015   2.333   2.922   2.650  1.8322  0.7503  4.1615
  754SOL     MW 3016   2.264   2.952   2.601  0.4969 -0.2023  0.1610
  755SOL     OW 3017   2.731   1.507   2.483 -0.6544 -0.4666  0.2778
  755SOL    HW1 3018   2.735   1.425   2.538  2.9660  1.2091 -0.9439
  755SOL    HW2 3019   2.790   1.565   2.532 -0.0654  0.2181  0.2137
  755SOL     MW 3020   2.739   1.504   2.497 -0.0990 -0.1552  0.1082
  756SOL     OW 3021   2.246   1.236   3.011 -0.7963 -0.2280  0.0978
  756SOL    HW1 3022   2.296   1.315   2.989 -0.3455  1.0018  2.2782
  756SOL    HW2 3023   2.313   1.164   3.025 -0.6280 -2.7747  0.1700
  756SOL     MW 3024   2.261   1.237   3.010 -0.7146 -0.4018  0.3950
  757SOL     OW 3025   2.102   0.932   1.612 -0.2724 -0.1675 -0.2249
  757SOL    HW1 3026   2.131   0.840   1.622  0.5065  0.1745 -0.1429
  757SOL    HW2 3027   2.012   0.930   1.574 -0.4907  1.0162  0.7907
  757SOL     MW 3028   2.094   0.919   1.609 -0.1984  0.0338 -0.0801
  758SOL     OW 3029   2.189   1.713   2.664 -0.0056 -0.6329  0.1559
  758SOL    HW1 3030   2.169   1.745   2.573  0.4526  0.8589 -3.3842
  758SOL    HW2 3031   2.283   1.706   2.651  0.2031  1.8426 -0.6791
  758SOL     MW 3032   2.198   1.716   2.650  0.0824 -0.1095 -0.4213
  759SOL     OW 3033   1.630   1.364   2.660  0.2591  0.8432 -0.7319
  759SOL    HW1 3034   1.593   1.448   2.635 -2.1251 -1.1331  0.0355
  759SOL    HW2 3035   1.674   1.377   2.743 -1.2950  1.3402 -1.0833
  759SOL     MW 3036   1.631   1.377   2.667 -0.2605  0.6480 -0.6770
  760SOL     OW 3037   2.628   1.992   2.700 -0.1772 -0.1124  0.2051
  760SOL    HW1 3038   2.576   1.913   2.682  1.0770 -0.6345  1.1814
  760SOL    HW2 3039   2.591   2.054   2.629  1.0524  4.5185 -1.2107
  760SOL     MW 3040   2.616   1.990   2.688  0.1505  0.4297  0.1471
  761SOL     OW 3041   2.192   0.398   2.447  0.2246 -0.1844 -0.2782
  761SOL    HW1 3042   2.122   0.338   2.469  0.9120 -1.4314  1.6032
  761SOL    HW2 3043   2.218   0.446   2.528  1.6578 -0.9164  2.5803
  761SOL     MW 3044   2.186   0.397   2.461  0.5044 -0.4455  0.3472
  762SOL     OW 3045   0.036   0.159   2.077 -0.4417  0.4058  0.7781
  762SOL    HW1 3046   0.015   0.093   2.142  0.3418 -2.3022 -0.1536
  762SOL    HW2 3047  -0.036   0.218   2.086 -1.4360  1.8925  0.0599
  762SOL     MW 3048   0.024   0.158   2.087 -0.4695  0.2447  0.5604
  763SOL     OW 3049   2.387   1.063   2.299 -0.5150  0.2722  0.3677
  763SOL    HW1 3050   2.431   1.013   2.229 -0.3591 -2.2207 -0.6070
  763SOL    HW2 3051   2.450   1.135   2.327 -1.6594  0.7123 -1.5071
  763SOL     MW 3052   2.401   1.066   2.294 -0.6454  0.0013 -0.0082
  764SOL     OW 3053   0.436   0.314   2.796 -0.0856 -0.6259  0.0454
  764SOL    HW1 3054   0.370   0.245   2.775  2.1872  1.3835 -0.0057
  764SOL    HW2 3055   0.394   0.389   2.842  0.0104  0.4798 -0.8358
  764SOL     MW 3056   0.422   0.315   2.799  0.2270 -0.2149 -0.0776
  765SOL     OW 3057   2.761   0.097   2.315  0.5653  0.0993  0.1507
  765SOL    HW1 3058   2.724   0.075   2.228 -0.5537 -0.4539 -0.1915
  765SOL    HW2 3059   2.789   0.010   2.346  0.1412  0.4997 -2.0735
  765SOL     MW 3060   2.760   0.082   2.308  0.3617  0.0792 -0.1879
  766SOL     OW 3061   1.829   2.983   2.182 -0.8530 -0.3262 -0.5097
  766SOL    HW1 3062   1.876   3.011   2.101 -0.6584 -1.2541  0.4105
  766SOL    HW2 3063   1.753   2.921   2.154 -1.8038 -0.0638 -0.2274
  766SOL     MW 3064   1.825   2.979   2.168 -0.9527 -0.4140 -0.3510
  767SOL     OW 3065   2.640   0.638   1.893  0.4223  0.2473  0.4574
  767SOL    HW1 3066   2.672   0.689   1.967 -2.3927  0.4874 -0.5863
  767SOL    HW2 3067   2.547   0.631   1.902  0.7992  0.6748 -1.8314
  767SOL     MW 3068   2.632   0.644   1.904  0.1006  0.3354  0.0177
  768SOL     OW 3069   0.017   1.534   2.930 -0.9661  0.4098 -0.0174
  768SOL    HW1 3070   0.033   1.511   3.029  1.0972 -0.3976  2.3264
  768SOL    HW2 3071   0.024   1.450   2.870  2.1987 -0.1075  0.2311
  768SOL     MW 3072   0.020   1.520   2.935 -0.2763  0.2350  0.3246
  769SOL     OW 3073   2.407   0.674   2.342  0.5980 -0.3141  0.1093
  769SOL    HW1 3074   2.310   0.652   2.346 -0.8385 -2.9542  1.2907
  769SOL    HW2 3075   2.429   0.625   2.258 -0.2902  1.8803 -1.2642
  769SOL     MW 3076   2.397   0.665   2.332  0.2913 -0.3729  0.0840
  770SOL     OW 3077   0.100   1.587   2.613 -0.2026 -0.3404  0.1807
  770SOL    HW1 3078   0.004   1.606   2.587 -0.5987  0.2988  2.2248
  770SOL    HW2 3079   0.106   1.493   2.644 -1.5103 -0.1756 -1.5140
  770SOL     MW 3080   0.088   1.577   2.613 -0.4274 -0.2343  0.2268
  771SOL     OW 3081   2.960   0.622   1.926  0.1798  0.0277  0.0031
  771SOL    HW1 3082   2.900   0.626   1.846 -0.6034  0.4692  0.7773
  771SOL    HW2 3083   3.028   0.688   1.918  2.1268 -0.2278  1.4106
  771SOL     MW 3084   2.961   0.631   1.914  0.3334  0.0522  0.2910
  772SOL     OW 3085   0.007   3.094   2.299  0.0895  0.0132 -0.1733
  772SOL    HW1 3086  -0.077   3.049   2.299 -0.5497  0.3128  1.3977
  772SOL    HW2 3087   0.078   3.032   2.270  0.4505 -2.3372 -0.3762
  772SOL     MW 3088   0.005   3.080   2.295  0.0528 -0.2574  0.0072
  773SOL     OW 3089   2.474   2.851   2.731 -0.5321  0.1704 -0.2091
  773SOL    HW1 3090   2.467   2.768   2.677  2.4131 -0.3890 -0.9987
  773SOL    HW2 3091   2.462   2.818   2.819 -0.0474 -1.4546 -1.3491
  773SOL     MW 3092   2.472   2.836   2.735 -0.0795 -0.1178 -0.4637
  774SOL     OW 3093   2.269   1.139   1.703  0.6262 -0.7953 -0.0319
  774SOL    HW1 3094   2.259   1.208   1.636 -2.2938 -0.1020  1.6229
  774SOL    HW2 3095   2.211   1.065   1.666 -3.0402 -1.0778 -2.0470
  774SOL     MW 3096   2.260   1.138   1.689 -0.2428 -0.7411 -0.0794
  775SOL     OW 3097   2.291   2.912   2.322 -0.6903  0.3484  0.5528
  775SOL    HW1 3098   2.325   2.991   2.276  3.0762 -1.9282 -2.7088
  775SOL    HW2 3099   2.353   2.838   2.305  2.1009 -0.3603  0.2528
  775SOL     MW 3100   2.304   2.913   2.314  0.1749 -0.0455  0.0829
  776SOL     OW 3101   0.065   1.471   0.110  0.5072  0.9769 -0.2502
  776SOL    HW1 3102   0.158   1.456   0.095 -1.5326 -1.2898 -0.1580
  776SOL    HW2 3103   0.017   1.388   0.120  2.1040 -2.2235  0.9825
  776SOL     MW 3104   0.071   1.458   0.109  0.4487  0.2556 -0.0754
  777SOL     OW 3105   2.972   1.072   1.766 -0.4910 -0.0168  0.4455
  777SOL    HW1 3106   2.911   1.126   1.715  0.5104 -2.1071 -2.6813
  777SOL    HW2 3107   2.910   1.022   1.819  0.3070  2.3650 -1.6232
  777SOL     MW 3108   2.956   1.072   1.766 -0.2536  0.0217 -0.2400
  778SOL     OW 3109   2.900   0.417   2.797  0.2870 -0.3180  0.2306
  778SOL    HW1 3110   2.838   0.439   2.876 -1.1373  0.0558  0.9705
  778SOL    HW2 3111   2.911   0.498   2.745 -1.2148  0.2610  2.5609
  778SOL     MW 3112   2.893   0.431   2.801 -0.0991 -0.1923  0.6357
  779SOL     OW 3113   2.124   0.642   2.313  0.2121 -0.0442  0.1562
  779SOL    HW1 3114   2.049   0.691   2.374  0.9844  3.7101  1.0304
  779SOL    HW2 3115   2.128   0.550   2.339  5.5064 -1.5796  3.4503
  779SOL     MW 3116   2.114   0.636   2.325  1.0126  0.2485  0.7062
  780SOL     OW 3117   0.230   0.087   2.805  0.5024 -0.3158 -0.2645
  780SOL    HW1 3118   0.215   0.155   2.869 -0.2113  0.5065 -1.0531
  780SOL    HW2 3119   0.146   0.085   2.761 -2.4241  0.0682  2.3593
  780SOL     MW 3120   0.217   0.096   2.808  0.0221 -0.1567 -0.0224
  781SOL     OW 3121   3.005   1.299   2.496 -0.1676  0.1251 -0.3677
  781SOL    HW1 3122   2.982   1.364   2.433  0.0055 -0.2229  1.6344
  781SOL    HW2 3123   3.036   1.232   2.440 -0.4157  1.3759  2.1582
  781SOL     MW 3124   3.006   1.299   2.480 -0.1775  0.2442  0.2297
  782SOL     OW 3125   0.620   1.523   3.083 -0.5474 -0.6821 -0.5972
  782SOL    HW1 3126   0.563   1.585   3.044  0.7764  0.9516 -1.4798
  782SOL    HW2 3127   0.578   1.503   3.172 -1.4697 -1.8001  2.4000
  782SOL     MW 3128   0.607   1.528   3.089 -0.4944 -0.6141 -0.3182
  783SOL     OW 3129   2.713   0.509   2.462 -0.2159 -0.1196 -0.0328
  783SOL    HW1 3130   2.672   0.469   2.380  1.2812 -0.8522 -0.5781
  783SOL    HW2 3131   2.710   0.432   2.523  0.0468 -0.1169 -0.8062
  783SOL     MW 3132   2.707   0.494   2.459  0.0163 -0.2159 -0.2068
  784SOL     OW 3133   0.264   0.903   2.879  0.1124  0.2646  0.1493
  784SOL    HW1 3134   0.197   0.971   2.907  2.9307  0.8101 -1.3837
  784SOL    HW2 3135   0.297   0.928   2.799 -3.0827 -2.0730  2.4513
  784SOL     MW 3136   0.260   0.915   2.872  0.0627  0.0281  0.2508
  785SOL     OW 3137   0.447   0.558   2.174  0.0290  0.0484  0.1649
  785SOL    HW1 3138   0.456   0.582   2.080 -2.3664 -0.3531 -1.3430
  785SOL    HW2 3139   0.378   0.495   2.158  0.6279  0.2477 -3.6441
  785SOL     MW 3140   0.439   0.553   2.160 -0.2080  0.0217 -0.5366
  786SOL     OW 3141   1.942   0.482   2.855  0.1684 -0.2920 -0.9953
  786SOL    HW1 3142   1.936   0.501   2.947  1.8079 -2.0226  2.9726
  786SOL    HW2 3143   2.027   0.468   2.829 -4.4223 -0.0443 -0.5715
  786SOL     MW 3144   1.952   0.483   2.864 -0.2210 -0.4877 -0.4158
  787SOL     OW 3145   2.426   0.139   2.975  0.1877  0.5053  0.2759
  787SOL    HW1 3146   2.494   0.101   2.918 -2.0733 -1.8510 -0.5479
  787SOL    HW2 3147   2.470   0.203   3.028 -3.2104  0.5462  1.4453
  787SOL     MW 3148   2.441   0.143   2.974 -0.5590  0.1998  0.3215
  788SOL     OW 3149   2.852   2.938   2.388 -0.2921 -0.3177 -0.0530
  788SOL    HW1 3150   2.798   2.889   2.333  1.3660  2.8517  0.3066
  788SOL    HW2 3151   2.902   2.865   2.423  2.3948 -1.6452  1.3417
  788SOL     MW 3152   2.852   2.922   2.386  0.2812 -0.0747  0.1784
  789SOL     OW 3153   0.115   0.306   2.953  0.0803 -0.7345 -0.3802
  789SOL    HW1 3154   0.041   0.259   3.000  2.5767 -0.9442  2.8846
  789SOL    HW2 3155   0.080   0.399   2.946 -0.7199  1.9417 -0.2319
  789SOL     MW 3156   0.101   0.312   2.958  0.3041 -0.4091  0.0701
  790SOL     OW 3157   3.064   1.017   2.431  0.5056 -0.1114  0.0651
  790SOL    HW1 3158   3.004   0.973   2.493 -3.0694 -1.5223 -2.1678
  790SOL    HW2 3159   3.008   1.019   2.349  2.6497 -1.2224  1.2254
  790SOL     MW 3160   3.048   1.011   2.428  0.3168 -0.4441 -0.0764
  791SOL     OW 3161   2.691   0.314   2.653  0.6825  0.3451 -0.0645
  791SOL    HW1 3162   2.616   0.379   2.682 -1.3345 -0.9907  1.6403
  791SOL    HW2 3163   2.766   0.340   2.709  1.1709  0.6583  0.9728
  791SOL     MW 3164   2.691   0.326   2.665  0.4808  0.2102  0.2973
  792SOL     OW 3165   2.393   0.225   2.366  0.1878  0.1564 -0.0390
  792SOL    HW1 3166   2.339   0.284   2.417  0.1713  0.1130 -0.3595
  792SOL    HW2 3167   2.451   0.178   2.425  0.0712 -1.4365  1.4875
  792SOL     MW 3168   2.394   0.226   2.380  0.1702 -0.0595  0.1201
  793SOL     OW 3169   1.851   1.089   1.953  0.2323 -0.6430 -0.0477
  793SOL    HW1 3170   1.866   1.109   1.866 -1.9276 -1.5749  0.2878
  793SOL    HW2 3171   1.917   1.022   1.965 -0.8749  2.5672 -1.4388
  793SOL     MW 3172   1.861   1.082   1.943 -0.1988 -0.3424 -0.1870
  794SOL     OW 3173   1.447   2.285   0.166  0.4942 -0.6463  0.5874
  794SOL    HW1 3174   1.460   2.358   0.106  2.7679  1.3039  0.5944
  794SOL    HW2 3175   1.507   2.308   0.238  0.6046  1.3424  0.0149
  794SOL     MW 3176   1.457   2.297   0.168  0.8087 -0.1266  0.5128
  795SOL     OW 3177   2.340   0.966   2.562 -0.3436  0.0358  0.3100
  795SOL    HW1 3178   2.312   1.025   2.629 -1.0119 -0.8543  1.8507
  795SOL    HW2 3179   2.397   1.028   2.516 -2.7095 -0.0710  1.7084
  795SOL     MW 3180   2.344   0.982   2.565 -0.7439 -0.0957  0.6978
  796SOL     OW 3181   0.230   0.660   2.795  0.0134  0.4007 -0.2846
  796SOL    HW1 3182   0.227   0.753   2.817  3.5954  0.7755 -1.6276
  796SOL    HW2 3183   0.163   0.645   2.730  1.1466 -1.1595 -2.4757
  796SOL     MW 3184   0.221   0.671   2.789  0.6355  0.2443 -0.7509
  797SOL     OW 3185   2.574   0.110   2.512 -0.1885 -0.0693  0.5236
  797SOL    HW1 3186   2.616   0.193   2.566  1.5208  1.8039  1.0462
  797SOL    HW2 3187   2.638   0.106   2.434 -0.5373 -0.7436 -1.5423
  797SOL     MW 3188   2.588   0.121   2.509 -0.0090  0.0889  0.3200
  798SOL     OW 3189   2.358   0.031   2.158 -0.2213 -0.0980 -0.0979
  798SOL    HW1 3190   2.359   0.093   2.239  1.3866 -0.9900  1.2511
  798SOL    HW2 3191   2.443   0.034   2.118  0.9090 -2.1068  0.4773
  798SOL     MW 3192   2.369   0.040   2.163  0.1400 -0.4807  0.1560
  799SOL     OW 3193   2.452   2.913   0.145 -0.0467  0.0742  0.1991
  799SOL    HW1 3194   2.422   2.863   0.068 -0.4185  1.0264  1.1677
  799SOL    HW2 3195   2.381   2.976   0.147  2.2544  0.2319  0.2144
  799SOL     MW 3196   2.439   2.915   0.135  0.2078  0.2206  0.3289
  800SOL     OW 3197   1.842   3.090   1.794 -0.0245 -0.7390 -0.6796
  800SOL    HW1 3198   1.798   3.003   1.787 -1.7300  0.7946  3.1415
  800SOL    HW2 3199   1.915   3.071   1.857  0.5916 -1.6141 -2.0309
  800SOL     MW 3200   1.845   3.076   1.802 -0.1682 -0.6521 -0.3538
  801SOL     OW 3201   2.779   1.289   2.662  0.4953  0.5266 -0.2791
  801SOL    HW1 3202   2.756   1.197   2.628 -1.7962 -0.5400 -1.1859
  801SOL    HW2 3203   2.867   1.299   2.633 -2.8821  1.2464  2.9439
  801SOL     MW 3204   2.787   1.278   2.653 -0.2527  0.4808  0.0265
  802SOL     OW 3205   2.567   1.568   2.828 -0.4972 -0.3263 -0.2145
  802SOL    HW1 3206   2.549   1.486   2.773 -1.1227 -0.9182 -0.6953
  802SOL    HW2 3207   2.664   1.566   2.855  2.5605 -0.8030  2.6603
  802SOL     MW 3208   2.577   1.557   2.824 -0.1763 -0.4672  0.1014
  803SOL     OW 3209   2.312   1.346   1.967 -0.1431  0.5444 -0.2477
  803SOL    HW1 3210   2.296   1.325   2.057  3.5118  1.2786  1.1681
  803SOL    HW2 3211   2.271   1.283   1.910  1.7487 -2.6441  1.2010
  803SOL     MW 3212   2.305   1.335   1.971  0.5887  0.2206  0.1303
  804SOL     OW 3213   2.268   0.049   0.072  0.6920  0.0703 -0.1832
  804SOL    HW1 3214   2.184   0.099   0.062  0.2854 -1.3207 -0.5168
  804SOL    HW2 3215   2.327   0.091   0.009  1.9704 -2.9535 -0.0327
  804SOL     MW 3216   2.265   0.061   0.062  0.8071 -0.5122 -0.2074
  805SOL     OW 3217   2.714   1.029   2.516 -0.3391 -0.2595  0.1408
  805SOL    HW1 3218   2.706   0.989   2.430  1.5562 -1.5393  0.1670
  805SOL    HW2 3219   2.761   0.959   2.558  1.1403 -1.1966 -0.1914
  805SOL     MW 3220   2.719   1.014   2.510  0.1062 -0.5520  0.1004
  806SOL     OW 3221   2.588   0.407   2.254 -0.0461  0.2587  0.0800
  806SOL    HW1 3222   2.516   0.345   2.292  1.1159 -3.9186  0.7599
  806SOL    HW2 3223   2.576   0.404   2.160  0.0513  1.0355  0.9583
  806SOL     MW 3224   2.577   0.398   2.246  0.1201 -0.1899  0.2856
  807SOL     OW 3225   0.013   1.125   2.031 -0.3721 -0.2455  0.4560
  807SOL    HW1 3226   0.066   1.043   1.996 -1.7006 -0.3905 -1.5860
  807SOL    HW2 3227  -0.065   1.086   2.077 -4.3273 -0.1592  1.7107
  807SOL     MW 3228   0.010   1.109   2.032 -1.0692 -0.2533  0.3521
  808SOL     OW 3229   2.575   0.003   2.770  0.6387  0.1167  0.0948
  808SOL    HW1 3230   2.541  -0.087   2.762 -0.2039  1.5590 -0.5926
  808SOL    HW2 3231   2.580   0.042   2.676 -1.6333  2.2500 -2.2967
  808SOL     MW 3232   2.571  -0.004   2.756  0.2278  0.5885 -0.3114
  809SOL     OW 3233   2.572   1.255   2.387  0.2156 -0.1351 -0.5387
  809SOL    HW1 3234   2.623   1.217   2.464  2.4139  0.4496 -0.1615
  809SOL    HW2 3235   2.633   1.287   2.316  1.1050 -0.4831 -1.3355
  809SOL     MW 3236   2.587   1.254   2.388  0.6230 -0.1039 -0.5941
  810SOL     OW 3237   2.233   1.294   2.219 -0.5554 -0.9724  0.4187
  810SOL    HW1 3238   2.274   1.212   2.247 -1.0627 -0.0469 -1.6303
  810SOL    HW2 3239   2.138   1.273   2.203 -0.5105 -0.0900  1.6024
  810SOL     MW 3240   2.226   1.280   2.221 -0.6164 -0.7339  0.3045
  811SOL     OW 3241   1.548   0.082   2.278 -0.5173  0.0477  0.0897
  811SOL    HW1 3242   1.630   0.054   2.312 -3.4935  2.4672 -1.8555
  811SOL    HW2 3243   1.556   0.068   2.187  2.4378 -2.0124  4.2231
  811SOL     MW 3244   1.560   0.077   2.270 -0.5201  0.0951  0.3784
  812SOL     OW 3245   1.442   2.777   2.046  0.6460  0.0305 -0.6606
  812SOL    HW1 3246   1.539   2.766   2.056 -0.5965 -0.4480  3.0310
  812SOL    HW2 3247   1.406   2.738   2.128 -2.1773  0.9338  0.0531
  812SOL     MW 3248   1.450   2.770   2.058  0.1095  0.0866 -0.0794
  813SOL     OW 3249   1.781   0.708   2.198  0.5404  0.0052 -0.5519
  813SOL    HW1 3250   1.735   0.627   2.226  0.2148  1.1923 -0.8013
  813SOL    HW2 3251   1.818   0.747   2.279 -3.2821 -0.9173  0.3704
  813SOL     MW 3252   1.780   0.702   2.212 -0.0069  0.0401 -0.4631
  814SOL     OW 3253   2.784   1.227   1.653 -0.2776  0.4465 -0.0625
  814SOL    HW1 3254   2.704   1.210   1.705 -1.7503  1.4944  0.9533
  814SOL    HW2 3255   2.763   1.221   1.559  0.2447 -1.3456 -1.0650
  814SOL     MW 3256   2.771   1.224   1.647 -0.4030  0.3483 -0.0608
  815SOL     OW 3257   2.514   1.636   2.399 -0.3515 -0.0613 -0.4508
  815SOL    HW1 3258   2.453   1.560   2.413  1.4349 -0.3223  1.6084
  815SOL    HW2 3259   2.592   1.597   2.436  2.9246 -0.7057 -0.4230
  815SOL     MW 3260   2.516   1.621   2.405  0.3164 -0.1807 -0.1754
  816SOL     OW 3261   0.750   0.624   2.771 -0.2442  0.1550 -0.0082
  816SOL    HW1 3262   0.772   0.550   2.826  1.1397  0.0197  1.6604
  816SOL    HW2 3263   0.666   0.616   2.730  1.4150  2.2912  1.3182
  816SOL     MW 3264   0.741   0.613   2.773  0.1573  0.4190  0.3870
  817SOL     OW 3265   3.058   1.170   1.364  0.3072 -0.1684  0.4641
  817SOL    HW1 3266   3.086   1.166   1.455 -0.0344  0.0279 -0.1690
  817SOL    HW2 3267   3.038   1.265   1.351  1.8810 -0.7394 -1.5794
  817SOL     MW 3268   3.059   1.182   1.374  0.4697 -0.2178  0.1109
  818SOL     OW 3269   1.916   0.993   2.775 -0.4977  0.2085 -0.0703
  818SOL    HW1 3270   1.879   1.022   2.690  2.9950  0.6602 -2.2581
  818SOL    HW2 3271   1.959   0.913   2.760 -0.0855  1.7020  1.1699
  818SOL     MW 3272   1.917   0.986   2.762  0.0175  0.4651 -0.1953
  819SOL     OW 3273   1.941   0.257   2.487 -0.3993 -0.7282 -0.3531
  819SOL    HW1 3274   1.873   0.322   2.496  2.2050 -1.7711 -0.9234
  819SOL    HW2 3275   1.972   0.241   2.575 -1.9551 -0.4721  0.5823
  819SOL     MW 3276   1.936   0.264   2.500 -0.2610 -0.8320 -0.3049
  820SOL     OW 3277   2.480   1.766   2.651  0.1832 -0.3923 -0.2125
  820SOL    HW1 3278   2.510   1.706   2.726  0.7967  1.0043  1.8903
  820SOL    HW2 3279   2.489   1.710   2.576 -2.3785  2.2210  1.2565
  820SOL     MW 3280   2.485   1.751   2.651 -0.0739  0.1367  0.2588
  821SOL     OW 3281   2.574   1.363   1.989  0.0569  0.0203 -0.1385
  821SOL    HW1 3282   2.622   1.444   1.961  1.5818 -1.1659 -0.6953
  821SOL    HW2 3283   2.481   1.376   1.968  2.2325 -1.3130 -2.2550
  821SOL     MW 3284   2.568   1.375   1.983  0.5451 -0.3121 -0.4912
  822SOL     OW 3285   2.829   2.675   1.475  0.4227  0.3625  0.1332
  822SOL    HW1 3286   2.782   2.666   1.556 -0.6115  1.0503  0.6683
  822SOL    HW2 3287   2.777   2.735   1.416 -1.3806  0.7371 -1.7575
  822SOL     MW 3288   2.816   2.682   1.478  0.0483  0.5026 -0.0457
  823SOL     OW 3289   2.238   0.467   1.770 -0.0978  0.1736 -0.6335
  823SOL    HW1 3290   2.314   0.420   1.734 -1.1419 -1.3782 -0.1077
  823SOL    HW2 3291   2.162   0.402   1.763 -0.3516 -1.2948 -1.7091
  823SOL     MW 3292   2.238   0.452   1.764 -0.2690 -0.2249 -0.7061
  824SOL     OW 3293   2.065   1.419   2.507  0.2388 -0.3240  0.0148
  824SOL    HW1 3294   2.152   1.410   2.524 -2.3738 -1.8541 -3.3697
  824SOL    HW2 3295   2.013   1.424   2.584  1.0570 -0.6100 -1.0203
  824SOL     MW 3296   2.069   1.419   2.520  0.0020 -0.5636 -0.5683
  825SOL     OW 3297   2.060   2.536   0.308 -0.0024  0.0969  0.8146
  825SOL    HW1 3298   2.044   2.495   0.394 -1.1677 -0.0077  1.6567
  825SOL    HW2 3299   2.125   2.487   0.255 -2.4498  2.2511  1.4592
  825SOL     MW 3300   2.066   2.524   0.312 -0.4791  0.3673  1.0108
  826SOL     OW 3301   1.914   2.355   0.513 -0.6327  0.0822 -0.4649
  826SOL    HW1 3302   1.852   2.300   0.559  2.0316  1.7605  2.4605
  826SOL    HW2 3303   1.923   2.432   0.578  0.3464 -0.6602 -1.7245
  826SOL     MW 3304   1.907   2.358   0.528 -0.1520  0.2057 -0.2451
  827SOL     OW 3305   1.964   2.195   0.821 -0.1981  0.1743  0.2662
  827SOL    HW1 3306   1.893   2.204   0.755 -0.6410  1.0416 -0.2639
  827SOL    HW2 3307   1.912   2.141   0.886 -0.0060 -1.3084 -1.0292
  827SOL     MW 3308   1.948   2.189   0.821 -0.2312  0.0931  0.0253
  828SOL     OW 3309   0.067   2.617   0.500 -0.4968 -0.3482 -0.1426
  828SOL    HW1 3310   0.159   2.631   0.535  0.6778  0.8729  1.8502
  828SOL    HW2 3311   0.047   2.687   0.437  0.8628  1.4299  1.7292
  828SOL     MW 3312   0.077   2.628   0.497 -0.1625  0.0475  0.3673
  829SOL     OW 3313   3.000   2.954   1.215 -0.1633 -0.0318 -0.2507
  829SOL    HW1 3314   2.914   2.930   1.179  0.7826  0.2151  0.8688
  829SOL    HW2 3315   3.054   2.877   1.213  0.9428 -2.0920 -0.4810
  829SOL     MW 3316   2.996   2.941   1.210  0.1074 -0.2710 -0.1334
  830SOL     OW 3317   2.533   2.868   2.033 -0.0478 -0.4713  0.0428
  830SOL    HW1 3318   2.434   2.881   2.026 -0.5797  1.5865  1.4436
  830SOL    HW2 3319   2.561   2.843   1.945 -0.5322  0.7107  2.1368
  830SOL     MW 3320   2.524   2.867   2.021 -0.1819 -0.0439  0.5039
  831SOL     OW 3321   2.379   2.445   1.233  0.4647 -0.0775  0.3295
  831SOL    HW1 3322   2.350   2.387   1.306  0.5993 -0.9316 -1.9339
  831SOL    HW2 3323   2.476   2.429   1.222  1.0162  1.1210 -0.5516
  831SOL     MW 3324   2.388   2.436   1.241  0.5552 -0.0320 -0.0854
  832SOL     OW 3325   2.391   2.147   1.837 -0.3667 -0.5313 -0.2264
  832SOL    HW1 3326   2.415   2.236   1.853 -0.2995 -1.0094  2.4112
  832SOL    HW2 3327   2.480   2.107   1.822  0.4368 -3.4528  0.1504
  832SOL     MW 3328   2.406   2.154   1.837 -0.2518 -0.9798  0.1713
  833SOL     OW 3329   1.806   2.484   0.918  0.2435 -0.0642  0.0086
  833SOL    HW1 3330   1.710   2.461   0.916 -2.3535  3.1449  1.4862
  833SOL    HW2 3331   1.792   2.553   0.992 -3.6106 -2.4959  0.3771
  833SOL     MW 3332   1.792   2.490   0.927 -0.6076  0.0384  0.2522
  834SOL     OW 3333   2.235   2.444   0.534 -0.4399  0.2228  1.0879
  834SOL    HW1 3334   2.269   2.364   0.570  4.2984  2.3062  0.2194
  834SOL    HW2 3335   2.285   2.455   0.450  3.0062  1.4805 -0.9288
  834SOL     MW 3336   2.246   2.435   0.528  0.6399  0.6636  0.7072
  835SOL     OW 3337   1.874   2.599   0.673 -0.3541 -0.2864  0.0393
  835SOL    HW1 3338   1.863   2.542   0.751 -1.7915 -0.3504 -2.6983
  835SOL    HW2 3339   1.946   2.655   0.710 -1.1415  1.4690  3.7434
  835SOL     MW 3340   1.882   2.599   0.688 -0.6476 -0.0632  0.1668
  836SOL     OW 3341   2.007   2.173   1.640  0.1888  0.2121  0.1158
  836SOL    HW1 3342   2.095   2.147   1.609  0.1846 -0.0496  0.1359
  836SOL    HW2 3343   2.029   2.226   1.718  1.7774  1.7516 -2.6712
  836SOL     MW 3344   2.022   2.177   1.646  0.3979  0.3807 -0.2493
  837SOL     OW 3345   2.052   0.169   0.706 -0.2835 -0.3993  0.3229
  837SOL    HW1 3346   1.979   0.225   0.661 -0.8005  0.7906 -0.2558
  837SOL    HW2 3347   2.111   0.143   0.634  0.5487  3.6250  2.2402
  837SOL     MW 3348   2.050   0.173   0.691 -0.2419  0.2887  0.4995
  838SOL     OW 3349   2.865   2.053   0.914 -0.4131  0.1614  0.1124
  838SOL    HW1 3350   2.811   1.971   0.923  2.3696 -0.7003 -0.4184
  838SOL    HW2 3351   2.928   2.038   0.981 -0.2708  1.6806  0.2638
  838SOL     MW 3352   2.866   2.040   0.924 -0.0272  0.2482  0.0623
  839SOL     OW 3353   1.502   2.358   0.924  0.2577  0.8466  0.5855
  839SOL    HW1 3354   1.504   2.446   0.959  1.8748 -0.4756  2.2443
  839SOL    HW2 3355   1.548   2.299   0.986 -0.3923  1.1439  0.0051
  839SOL     MW 3356   1.508   2.362   0.937  0.3853  0.7114  0.7278
  840SOL     OW 3357   2.280   2.062   2.398 -1.0263  0.1917  0.4250
  840SOL    HW1 3358   2.254   2.114   2.329  1.9774  1.1213 -2.4296
  840SOL    HW2 3359   2.335   2.119   2.454  3.0163 -0.5494 -0.3583
  840SOL     MW 3360   2.284   2.077   2.396 -0.0966  0.2166 -0.0550
  841SOL     OW 3361   2.225   2.436   0.061  0.2541 -0.3625 -0.5026
  841SOL    HW1 3362   2.229   2.464  -0.034  1.1181  0.0688  0.7415
  841SOL    HW2 3363   2.179   2.353   0.052 -3.1807  1.3620 -1.6901
  841SOL     MW 3364   2.219   2.429   0.047 -0.0851 -0.0781 -0.4951
  842SOL     OW 3365   2.660   2.001   1.508 -0.1284  0.5878 -1.1706
  842SOL    HW1 3366   2.602   1.931   1.504  1.6416  0.6836 -3.6883
  842SOL    HW2 3367   2.650   2.051   1.421 -1.0494  0.0252  1.3204
  842SOL     MW 3368   2.651   1.998   1.496 -0.0164  0.5262 -1.1741
  843SOL     OW 3369   2.640   2.811   1.789  0.4300 -0.3829 -0.3485
  843SOL    HW1 3370   2.729   2.786   1.818 -0.1895  1.2059  4.2311
  843SOL    HW2 3371   2.609   2.734   1.745  1.9760  1.0439  0.1279
  843SOL     MW 3372   2.648   2.798   1.787  0.5522  0.0150  0.3186
  844SOL     OW 3373   2.640   2.358   1.196 -0.1869 -0.0814  0.3026
  844SOL    HW1 3374   2.678   2.363   1.108  1.4514 -1.5741  1.7290
  844SOL    HW2 3375   2.726   2.353   1.244 -1.0318  0.1313  0.4955
  844SOL     MW 3376   2.657   2.358   1.191 -0.0822 -0.2503  0.5162
  845SOL     OW 3377   2.831   2.546   0.357  0.1584  0.0570  0.0616
  845SOL    HW1 3378   2.783   2.462   0.354 -1.3385 -2.4886  0.5879
  845SOL    HW2 3379   2.800   2.607   0.428  0.2370  0.5284 -1.4291
  845SOL     MW 3380   2.821   2.543   0.366 -0.0287 -0.2167 -0.0656
  846SOL     OW 3381   1.495   2.800   0.842 -0.0809 -0.7468 -0.0859
  846SOL    HW1 3382   1.568   2.862   0.854 -1.1230  2.6039  0.5605
  846SOL    HW2 3383   1.413   2.851   0.857  0.3622  1.5645 -0.2672
  846SOL     MW 3384   1.494   2.815   0.846 -0.1599  0.0002 -0.0245
  847SOL     OW 3385   2.467   1.917   0.173 -0.0753 -0.0471 -0.2313
  847SOL    HW1 3386   2.490   1.833   0.221 -0.2802 -2.7409  1.0331
  847SOL    HW2 3387   2.439   1.881   0.088  0.2038 -2.4900 -0.7343
  847SOL     MW 3388   2.466   1.901   0.168 -0.0655 -0.7248 -0.1309
  848SOL     OW 3389   2.585   2.088   1.269 -0.2934 -0.0113 -0.3746
  848SOL    HW1 3390   2.614   2.173   1.251  0.6017 -0.1747 -1.5370
  848SOL    HW2 3391   2.624   2.029   1.204  0.4360  0.2822 -0.2275
  848SOL     MW 3392   2.594   2.091   1.258 -0.0791  0.0059 -0.5086
  849SOL     OW 3393   2.069   2.772   0.778  0.4344 -0.0065  0.4900
  849SOL    HW1 3394   2.082   2.718   0.856  0.0844  1.3170 -1.5799
  849SOL    HW2 3395   2.153   2.750   0.728  1.1184 -3.0606  0.9724
  849SOL     MW 3396   2.082   2.762   0.782  0.4784 -0.2349  0.2806
  850SOL     OW 3397   2.266   1.809   1.643  0.1939 -0.3944  0.3502
  850SOL    HW1 3398   2.190   1.762   1.618  1.3187  1.5239  0.5698
  850SOL    HW2 3399   2.250   1.899   1.601 -3.3502  0.3375 -1.0927
  850SOL     MW 3400   2.254   1.815   1.634 -0.1253 -0.0447  0.1888
  851SOL     OW 3401   2.395   2.379   0.299  0.7067 -0.5904  0.1687
  851SOL    HW1 3402   2.374   2.382   0.204  0.8064 -1.3600  0.4232
  851SOL    HW2 3403   2.489   2.347   0.298  2.1741  0.9831 -0.1506
  851SOL     MW 3404   2.405   2.375   0.286  0.9135 -0.4844  0.1602
  852SOL     OW 3405   2.333   2.100   0.350 -0.3514  0.1379  0.1367
  852SOL    HW1 3406   2.344   2.198   0.340 -0.5350  2.4297  0.8338
  852SOL    HW2 3407   2.379   2.049   0.281  1.0915  0.8463  0.1678
  852SOL     MW 3408   2.341   2.106   0.340 -0.1852  0.5338  0.2328
  853SOL     OW 3409   2.449   2.423   1.902 -0.0382 -0.0212 -0.3543
  853SOL    HW1 3410   2.476   2.492   1.841 -2.2117 -1.2358 -0.3551
  853SOL    HW2 3411   2.526   2.393   1.955  1.1717 -1.2474 -0.3058
  853SOL     MW 3412   2.462   2.428   1.901 -0.1653 -0.3432 -0.3480
  854SOL     OW 3413   2.847   2.276   0.761  0.3104 -0.2809  0.0763
  854SOL    HW1 3414   2.780   2.224   0.707 -0.7083 -1.3327  2.0080
  854SOL    HW2 3415   2.864   2.204   0.828  0.3624  2.3326 -0.1210
  854SOL     MW 3416   2.841   2.259   0.763  0.1829 -0.0749  0.3051
  855SOL     OW 3417   2.659   2.332   0.324  0.0239  0.9314  0.0252
  855SOL    HW1 3418   2.639   2.381   0.410  0.1451  3.0579  1.2716
  855SOL    HW2 3419   2.712   2.248   0.344  1.0605  0.6823 -0.5358
  855SOL     MW 3420   2.664   2.327   0.338  0.1767  1.1791  0.1156
  856SOL     OW 3421   2.125   1.919   0.221  0.4419  0.2788  0.3918
  856SOL    HW1 3422   2.031   1.918   0.250 -0.9503  1.9216 -0.8601
  856SOL    HW2 3423   2.148   2.006   0.254  0.9492 -2.1929  2.0095
  856SOL     MW 3424   2.116   1.930   0.229  0.3252  0.1694  0.4401
  857SOL     OW 3425   2.466   1.969   0.550  0.3052  0.3079  0.2661
  857SOL    HW1 3426   2.413   2.009   0.471 -1.4360 -0.6273  0.8571
  857SOL    HW2 3427   2.391   1.956   0.622 -1.1512 -2.1980 -1.9521
  857SOL     MW 3428   2.449   1.973   0.549 -0.1167 -0.1461  0.0514
  858SOL     OW 3429   2.881   2.698   1.770 -0.5330 -0.0122  0.0972
  858SOL    HW1 3430   2.968   2.710   1.739  1.0368  0.0673  0.6152
  858SOL    HW2 3431   2.881   2.604   1.794  0.9977  0.0048  0.8769
  858SOL     MW 3432   2.893   2.687   1.769 -0.1239  0.0005  0.2684
  859SOL     OW 3433   2.123   2.609   0.975 -0.5558  0.6315  1.0005
  859SOL    HW1 3434   2.088   2.523   0.997 -2.3599  2.6113 -0.2941
  859SOL    HW2 3435   2.171   2.650   1.045  1.7298  0.8241 -0.8147
  859SOL     MW 3436   2.125   2.603   0.987 -0.4923  0.9181  0.5902
  860SOL     OW 3437   2.701   2.621   0.133 -0.2881 -0.3187 -0.0882
  860SOL    HW1 3438   2.753   2.611   0.217  2.3750  3.0510  3.3725
  860SOL    HW2 3439   2.725   2.713   0.093 -0.4261  2.7653 -1.3940
  860SOL     MW 3440   2.711   2.632   0.139  0.0451  0.5328  0.1961
  861SOL     OW 3441   1.618   2.192   1.102  0.3107 -0.1130 -0.3092
  861SOL    HW1 3442   1.618   2.276   1.151  1.8655 -1.4524  1.3956
  861SOL    HW2 3443   1.562   2.135   1.153  0.1650 -0.9502 -0.0706
  861SOL     MW 3444   1.611   2.195   1.115  0.4966 -0.4002 -0.0528
  862SOL     OW 3445   2.501   1.770   1.514  0.0563 -0.4141 -0.2096
  862SOL    HW1 3446   2.427   1.778   1.572  1.6460  0.6125  1.5987
  862SOL    HW2 3447   2.466   1.762   1.426  0.3266  2.8364 -0.7895
  862SOL     MW 3448   2.487   1.770   1.510  0.3017  0.1503 -0.0475
  863SOL     OW 3449   2.974   1.776   1.052 -0.3579  0.2601 -0.0100
  863SOL    HW1 3450   3.056   1.755   1.094 -1.6410 -1.7762 -2.0019
  863SOL    HW2 3451   2.919   1.777   1.126  2.0840 -0.3036 -0.4008
  863SOL     MW 3452   2.978   1.773   1.068 -0.2050 -0.0829 -0.3244
  864SOL     OW 3453   0.048   1.838   0.820  0.5499 -0.1009  0.6283
  864SOL    HW1 3454  -0.023   1.826   0.886 -0.7472  0.8130 -1.6193
  864SOL    HW2 3455  -0.011   1.828   0.744  2.7945  0.7207 -0.2386
  864SOL     MW 3456   0.031   1.835   0.819  0.6749  0.1281  0.2174
  865SOL     OW 3457   2.520   2.171   0.056  0.7082 -0.5440 -0.5561
  865SOL    HW1 3458   2.565   2.087   0.075  0.1428 -0.9133  1.4544
  865SOL    HW2 3459   2.504   2.159  -0.034 -1.9721 -0.1826 -0.6189
  865SOL     MW 3460   2.524   2.158   0.046  0.2800 -0.5451 -0.2991
  866SOL     OW 3461   2.663   2.355   1.612  0.1212 -0.0721 -0.3762
  866SOL    HW1 3462   2.661   2.262   1.635  2.4315 -0.2140 -1.3300
  866SOL    HW2 3463   2.695   2.366   1.520 -0.5991 -0.9685 -0.8713
  866SOL     MW 3464   2.667   2.344   1.603  0.3310 -0.2091 -0.5674
  867SOL     OW 3465   0.095   2.673   1.794  0.0695  0.2691  0.0964
  867SOL    HW1 3466   0.156   2.737   1.844  2.0056 -0.0942 -2.2638
  867SOL    HW2 3467   0.109   2.682   1.700 -0.7940  1.9938 -1.1237
  867SOL     MW 3468   0.105   2.682   1.788  0.2110  0.4487 -0.3760
  868SOL     OW 3469   2.749   2.716   0.569 -0.0081 -0.5543  0.3508
  868SOL    HW1 3470   2.693   2.632   0.580 -1.0914 -1.7541 -0.3615
  868SOL    HW2 3471   2.690   2.785   0.532 -2.2300 -0.0613  0.0442
  868SOL     MW 3472   2.734   2.714   0.566 -0.4442 -0.6476  0.2164
  869SOL     OW 3473   2.073   2.327   1.020  0.0594  0.2362 -0.5222
  869SOL    HW1 3474   2.170   2.345   1.016  1.9951  0.9061  0.3960
  869SOL    HW2 3475   2.045   2.270   0.943 -0.5356 -3.0468  1.4005
  869SOL     MW 3476   2.082   2.322   1.009  0.2363 -0.1086 -0.1473
  870SOL     OW 3477   2.143   0.027   0.490 -0.0644  0.4351 -0.1207
  870SOL    HW1 3478   2.215   0.085   0.453  0.4703  2.2613 -1.1262
  870SOL    HW2 3479   2.181  -0.057   0.496 -2.1542  0.9488 -0.5924
  870SOL     MW 3480   2.157   0.024   0.486 -0.2696  0.7438 -0.3156
  871SOL     OW 3481   2.456   2.089   0.933  0.0010 -0.1219  0.0811
  871SOL    HW1 3482   2.411   2.068   0.853  2.2385  1.4629 -2.0761
  871SOL    HW2 3483   2.427   2.182   0.948  2.5132  0.8503 -0.0129
  871SOL     MW 3484   2.446   2.099   0.925  0.6276  0.2155 -0.2159
  872SOL     OW 3485   2.047   2.494   1.506  0.0139  0.0700 -0.2267
  872SOL    HW1 3486   1.976   2.536   1.558  0.5159  1.0898 -1.6751
  872SOL    HW2 3487   2.009   2.494   1.417  1.6991  1.7775  0.2574
  872SOL     MW 3488   2.033   2.500   1.501  0.3025  0.4298 -0.3539
  873SOL     OW 3489   2.891   2.078   1.971 -0.6838  0.2929  0.2754
  873SOL    HW1 3490   2.892   2.120   2.061  1.3389  1.4645 -0.4108
  873SOL    HW2 3491   2.971   2.095   1.920 -0.6191  0.8606  0.7371
  873SOL     MW 3492   2.902   2.086   1.976 -0.4084  0.5223  0.2458
  874SOL     OW 3493   2.341   1.436   2.430  0.1939  0.2380 -0.6077
  874SOL    HW1 3494   2.277   1.407   2.367 -0.4888  0.4529 -0.6188
  874SOL    HW2 3495   2.415   1.382   2.422 -1.2970  1.2500 -0.0531
  874SOL     MW 3496   2.342   1.425   2.421 -0.0929  0.3999 -0.5360
  875SOL     OW 3497   2.346   2.338   0.987 -0.2583  0.0165  0.0031
  875SOL    HW1 3498   2.388   2.393   0.924  0.3570 -2.1259  0.3650
  875SOL    HW2 3499   2.368   2.374   1.073  0.3927  1.9942  0.3366
  875SOL     MW 3500   2.355   2.350   0.990 -0.0912 -0.0052  0.0949
  876SOL     OW 3501   3.062   2.272   1.365 -0.0198  0.7431 -0.5221
  876SOL    HW1 3502   3.074   2.315   1.279 -3.7214 -0.9378 -1.0599
  876SOL    HW2 3503   3.142   2.307   1.404  0.4767 -2.0175 -0.1496
  876SOL     MW 3504   3.074   2.282   1.359 -0.4427  0.1571 -0.5439
  877SOL     OW 3505   3.083   2.836   0.312 -0.0261 -0.6084 -0.0611
  877SOL    HW1 3506   3.149   2.902   0.292 -1.5529 -1.5429 -0.9783
  877SOL    HW2 3507   3.070   2.787   0.233  0.4918 -1.9247 -0.1202
  877SOL     MW 3508   3.090   2.838   0.299 -0.1592 -0.9053 -0.1899
  878SOL     OW 3509   2.427   1.786   1.234  0.2536 -0.6367 -0.2412
  878SOL    HW1 3510   2.363   1.724   1.265 -0.3001  1.7688 -0.7623
  878SOL    HW2 3511   2.516   1.743   1.225  1.4031  0.0703 -2.4082
  878SOL     MW 3512   2.430   1.772   1.237  0.3322 -0.2260 -0.5959
  879SOL     OW 3513   2.776   2.432   0.966  0.4573 -0.3563 -0.4332
  879SOL    HW1 3514   2.844   2.497   0.961  0.4095 -0.8805  0.3756
  879SOL    HW2 3515   2.799   2.360   0.900 -0.9039 -4.0258 -1.0774
  879SOL     MW 3516   2.788   2.431   0.956  0.2714 -0.9096 -0.4115
  880SOL     OW 3517   2.606   2.158   0.704 -0.4859 -0.0190 -0.9510
  880SOL    HW1 3518   2.589   2.135   0.798 -2.0285 -0.4798 -0.8774
  880SOL    HW2 3519   2.576   2.089   0.649  0.8519 -2.6800 -2.6891
  880SOL     MW 3520   2.600   2.146   0.709 -0.5129 -0.4309 -1.1706
  881SOL     OW 3521   2.988   2.724   0.699 -0.1488  0.0967 -0.3534
  881SOL    HW1 3522   2.913   2.715   0.642  1.1590 -0.8644  2.6995
  881SOL    HW2 3523   3.070   2.713   0.645  0.8876 -0.2248 -1.8523
  881SOL     MW 3524   2.989   2.721   0.684  0.1605 -0.0725 -0.1484
  882SOL     OW 3525   2.249   2.883   1.946  0.2382 -0.4251 -0.2717
  882SOL    HW1 3526   2.232   2.905   1.850  0.4947 -1.0995  1.9773
  882SOL    HW2 3527   2.199   2.796   1.951 -2.3599  0.2208 -0.8387
  882SOL     MW 3528   2.240   2.874   1.934 -0.0708 -0.4288 -0.0498
  883SOL     OW 3529   2.346   2.204   1.359  0.3860 -0.2183 -0.2680
  883SOL    HW1 3530   2.417   2.164   1.311 -1.2580  1.6309  2.0901
  883SOL    HW2 3531   2.270   2.190   1.311  0.5826  1.2687  0.3682
  883SOL     MW 3532   2.345   2.197   1.346  0.1950  0.2219  0.1271
  884SOL     OW 3533   1.961   1.819   1.074  0.4249 -0.2077  0.0279
  884SOL    HW1 3534   1.899   1.882   1.025 -3.2871  1.2784  0.3796
  884SOL    HW2 3535   2.053   1.859   1.074 -0.1543  1.2548 -1.5027
  884SOL     MW 3536   1.965   1.833   1.067 -0.1413  0.1813 -0.1276
  885SOL     OW 3537   2.849   2.433   1.798 -0.3873 -0.3476 -0.3316
  885SOL    HW1 3538   2.909   2.357   1.785 -1.5648 -2.6939  0.7247
  885SOL    HW2 3539   2.784   2.411   1.736  2.1037  1.1202  0.0764
  885SOL     MW 3540   2.848   2.420   1.788 -0.2140 -0.4635 -0.1384
  886SOL     OW 3541   2.832   2.393   1.389 -0.0477  0.0453  0.0224
  886SOL    HW1 3542   2.917   2.352   1.387  2.1516 -2.9879  1.9459
  886SOL    HW2 3543   2.847   2.480   1.418  0.6040  0.0645 -3.4758
  886SOL     MW 3544   2.845   2.399   1.392  0.3285 -0.3524 -0.1854
  887SOL     OW 3545   2.266   2.659   1.541 -0.2645  0.2318 -0.1979
  887SOL    HW1 3546   2.302   2.711   1.468 -0.0870  1.0996 -1.2552
  887SOL    HW2 3547   2.185   2.615   1.517  0.6177 -2.2954 -0.0989
  887SOL     MW 3548   2.260   2.660   1.528 -0.1247  0.0129 -0.3243
  888SOL     OW 3549   1.876   2.160   1.387  0.0109 -0.3469 -0.1343
  888SOL    HW1 3550   1.964   2.144   1.345  0.5906  1.5322  1.4408
  888SOL    HW2 3551   1.905   2.174   1.481  1.9700 -0.3788 -0.0843
  888SOL     MW 3552   1.892   2.160   1.394  0.3459 -0.1032  0.0801
  889SOL     OW 3553   2.356   2.026   2.079  0.0489 -0.1009 -0.2736
  889SOL    HW1 3554   2.421   1.962   2.114  0.2019 -1.2331 -2.1641
  889SOL    HW2 3555   2.391   2.073   2.005 -0.5144  2.3354  0.5480
  889SOL     MW 3556   2.369   2.023   2.074 -0.0052  0.0712 -0.4147
  890SOL     OW 3557   0.070   2.378   0.143 -0.1287 -0.2754  0.2336
  890SOL    HW1 3558   0.020   2.456   0.142  1.9491 -1.4663  0.0157
  890SOL    HW2 3559   0.034   2.329   0.220 -1.0179  2.5230 -0.9632
  890SOL     MW 3560   0.059   2.382   0.153  0.0281 -0.0633  0.0469
  891SOL     OW 3561   3.079   1.981   1.263 -0.7400 -0.2831 -0.0782
  891SOL    HW1 3562   3.156   1.925   1.238  2.4745  1.3072 -1.2389
  891SOL    HW2 3563   3.127   2.056   1.298  1.3959 -1.0743 -0.8710
  891SOL     MW 3564   3.095   1.984   1.265 -0.0340 -0.1777 -0.3359
  892SOL     OW 3565   2.462   2.374   2.766 -0.4172  0.6966 -0.0842
  892SOL    HW1 3566   2.420   2.293   2.808  2.8959  1.5889  0.9017
  892SOL    HW2 3567   2.564   2.375   2.793  1.0575  1.5855 -0.0193
  892SOL     MW 3568   2.470   2.363   2.775  0.2145  0.9316  0.0545
  893SOL     OW 3569   1.606   2.453   1.209  0.5640 -0.2517  0.0171
  893SOL    HW1 3570   1.539   2.468   1.274  0.8601 -0.2209  1.6690
  893SOL    HW2 3571   1.690   2.463   1.252  0.6841  0.6183 -1.4076
  893SOL     MW 3572   1.608   2.456   1.223  0.6189 -0.1329  0.0471
  894SOL     OW 3573   2.722   1.887   0.443  0.1615  0.2068  0.5269
  894SOL    HW1 3574   2.630   1.890   0.457  0.4121  2.6427  0.6909
  894SOL    HW2 3575   2.743   1.845   0.354 -2.9852  2.5897 -0.4923
  894SOL     MW 3576   2.712   1.882   0.433 -0.2206  0.8426  0.4141
  895SOL     OW 3577   2.092   2.152   1.254  0.2561  0.3345 -0.3052
  895SOL    HW1 3578   2.100   2.212   1.179 -1.7809 -1.5989 -1.7694
  895SOL    HW2 3579   2.121   2.062   1.225 -0.2898 -1.1832 -0.1822
  895SOL     MW 3580   2.097   2.148   1.240 -0.0847 -0.1208 -0.4822
  896SOL     OW 3581   2.318   2.809   1.096 -0.5208 -0.1341  0.0672
  896SOL    HW1 3582   2.343   2.783   1.184  2.2388  2.6095 -1.9655
  896SOL    HW2 3583   2.256   2.885   1.115 -2.0270  2.9817  5.6029
  896SOL     MW 3584   2.313   2.816   1.110 -0.3554  0.6390  0.5293
  897SOL     OW 3585   3.060   3.046   3.053  0.6406 -0.1057  0.0195
  897SOL    HW1 3586   3.111   2.968   3.021 -1.6765  1.0865  2.9884
  897SOL    HW2 3587   3.003   3.036   2.982 -0.1703 -0.7718  1.0555
  897SOL     MW 3588   3.059   3.034   3.039  0.2279 -0.0363  0.5479
  898SOL     OW 3589   2.072   0.182   1.486 -0.4106 -0.0408  0.0336
  898SOL    HW1 3590   2.047   0.094   1.517 -0.0016  1.4413  0.1555
  898SOL    HW2 3591   2.077   0.174   1.393 -0.2954 -1.6224  2.0671
  898SOL     MW 3592   2.069   0.170   1.478 -0.3414 -0.0540  0.3180
  899SOL     OW 3593   2.979   2.983   0.619  0.5625  0.3721 -0.1744
  899SOL    HW1 3594   2.993   2.896   0.670  1.0769  1.9363 -0.3808
  899SOL    HW2 3595   2.888   3.011   0.632  0.3211  0.4830 -0.8604
  899SOL     MW 3596   2.969   2.975   0.627  0.5985  0.5932 -0.2921
  900SOL     OW 3597   0.030   2.396   1.145 -0.5380  0.2120  0.0935
  900SOL    HW1 3598   0.011   2.488   1.139 -0.9453 -2.1020 -0.7713
  900SOL    HW2 3599   0.037   2.351   1.058  0.5383 -2.5710  0.2764
  900SOL     MW 3600   0.028   2.402   1.133 -0.4497 -0.4605  0.0036
  901SOL     OW 3601   1.758   2.833   1.786  0.3560 -0.1600  0.2847
  901SOL    HW1 3602   1.824   2.782   1.733  1.4700 -2.7835 -2.9293
  901SOL    HW2 3603   1.680   2.824   1.733 -0.2081 -0.9924  0.9722
  901SOL     MW 3604   1.756   2.825   1.772  0.4285 -0.6159 -0.0487
  902SOL     OW 3605   2.647   2.074   1.803  0.1137 -0.0566 -0.6369
  902SOL    HW1 3606   2.657   2.053   1.716 -0.2314  2.3679 -0.2511
  902SOL    HW2 3607   2.731   2.072   1.850  0.9489 -0.8659 -0.0193
  902SOL     MW 3608   2.659   2.071   1.798  0.1784  0.1565 -0.5045
  903SOL     OW 3609   1.577   2.655   0.642 -1.0089 -0.2634 -0.4508
  903SOL    HW1 3610   1.672   2.643   0.642 -2.7516  1.8260 -3.0100
  903SOL    HW2 3611   1.540   2.713   0.719 -2.1869 -0.1508  0.8741
  903SOL     MW 3612   1.584   2.661   0.652 -1.3942  0.0272 -0.6137
  904SOL     OW 3613   2.526   2.578   1.663 -0.5903 -0.3737  0.2425
  904SOL    HW1 3614   2.443   2.583   1.618 -0.8373 -1.1184 -1.2631
  904SOL    HW2 3615   2.580   2.499   1.631  0.7498  0.6562  0.9310
  904SOL     MW 3616   2.522   2.569   1.653 -0.4461 -0.3361  0.1347
  905SOL     OW 3617   2.300   2.499   2.120  0.9098 -0.2050 -0.1477
  905SOL    HW1 3618   2.362   2.466   2.063 -0.1157  0.5211  0.7066
  905SOL    HW2 3619   2.269   2.421   2.172 -0.0505 -1.3072  0.0607
  905SOL     MW 3620   2.304   2.484   2.119  0.6478 -0.2546 -0.0075
  906SOL     OW 3621   2.513   2.492   0.811  0.0707 -0.0286 -0.5663
  906SOL    HW1 3622   2.598   2.482   0.858  0.3292 -0.5159 -1.6503
  906SOL    HW2 3623   2.489   2.587   0.823  4.3806 -1.6342 -0.7136
  906SOL     MW 3624   2.521   2.503   0.818  0.6734 -0.3047 -0.7288
  907SOL     OW 3625   2.638   2.847   1.312  0.1196  0.5521 -0.6345
  907SOL    HW1 3626   2.701   2.909   1.354  1.0773 -0.8190 -0.8331
  907SOL    HW2 3627   2.676   2.841   1.219  0.1766 -0.0868  1.1874
  907SOL     MW 3628   2.651   2.854   1.305  0.2535  0.2869 -0.4203
  908SOL     OW 3629   2.720   2.367   0.018  0.5444  0.6010 -0.2339
  908SOL    HW1 3630   2.659   2.304   0.051 -0.9852 -0.1811 -0.5569
  908SOL    HW2 3631   2.682   2.454   0.051  2.7082  2.2568  0.2409
  908SOL     MW 3632   2.707   2.370   0.026  0.6281  0.7163 -0.2138
  909SOL     OW 3633   1.778   0.057   1.183  1.0214  0.1706 -0.0895
  909SOL    HW1 3634   1.766   0.133   1.124  0.3700  1.5599 -1.0491
  909SOL    HW2 3635   1.726   0.066   1.259  1.2534  1.5671 -2.6454
  909SOL     MW 3636   1.770   0.068   1.185  0.9661  0.5382 -0.5533
  910SOL     OW 3637   2.216   1.735   0.404 -0.4241 -1.0278  0.3785
  910SOL    HW1 3638   2.184   1.647   0.389  0.6320  1.0106  1.2557
  910SOL    HW2 3639   2.175   1.795   0.340 -0.5232 -1.1173  0.2258
  910SOL     MW 3640   2.206   1.731   0.394 -0.2978 -0.7707  0.4741
  911SOL     OW 3641   2.251   2.078   1.594 -0.2607 -0.2220 -0.9727
  911SOL    HW1 3642   2.295   2.106   1.672  0.9713  0.2027  0.2243
  911SOL    HW2 3643   2.290   2.118   1.518  0.5709 -1.9118  0.1101
  911SOL     MW 3644   2.262   2.087   1.594  0.0116 -0.3889 -0.6719
  912SOL     OW 3645   2.933   1.908   1.480 -0.2017 -0.6941 -0.6712
  912SOL    HW1 3646   2.967   1.935   1.388 -5.2998  0.2502  2.8101
  912SOL    HW2 3647   2.845   1.953   1.490  0.4509  1.3470  3.0224
  912SOL     MW 3648   2.926   1.918   1.469 -0.7882 -0.3002  0.2755
  913SOL     OW 3649   2.611   3.058   0.353 -0.5731  0.6733  0.0584
  913SOL    HW1 3650   2.696   3.008   0.335  0.8730 -2.3123  0.1137
  913SOL    HW2 3651   2.554   2.997   0.321 -1.0856  1.1741  0.6920
  913SOL     MW 3652   2.615   3.044   0.346 -0.4499  0.3454  0.1493
  914SOL     OW 3653   2.703   1.792   3.013 -0.1157  0.7298  0.0748
  914SOL    HW1 3654   2.739   1.878   2.996 -0.7514  0.5724 -2.3645
  914SOL    HW2 3655   2.607   1.810   3.020 -2.5842  2.3071 -1.4788
  914SOL     MW 3656   2.695   1.806   3.012 -0.5252  0.9171 -0.4520
  915SOL     OW 3657   1.716   0.209   0.237  0.4931 -0.2525 -0.2456
  915SOL    HW1 3658   1.788   0.141   0.260  0.5947  0.8669 -1.7307
  915SOL    HW2 3659   1.637   0.155   0.246  0.6097 -2.2490 -0.5502
  915SOL     MW 3660   1.715   0.193   0.241  0.5219 -0.3682 -0.4817
  916SOL     OW 3661   1.829   2.133   1.977 -0.4581  0.2939  0.1340
  916SOL    HW1 3662   1.875   2.216   1.955  2.1913 -0.4815  0.5251
  916SOL    HW2 3663   1.813   2.087   1.894 -1.2862 -0.4542 -0.5978
  916SOL     MW 3664   1.833   2.138   1.963 -0.2178  0.0929  0.0891
  917SOL     OW 3665   2.484   2.180   2.556  0.0645 -0.0540  0.6080
  917SOL    HW1 3666   2.472   2.248   2.621  3.4396 -0.7722 -0.2510
  917SOL    HW2 3667   2.544   2.217   2.494 -0.4354 -1.6684  0.4288
  917SOL     MW 3668   2.490   2.194   2.557  0.4439 -0.3618  0.4710
  918SOL     OW 3669   1.958   1.585   2.684 -0.0395 -0.2482 -0.0228
  918SOL    HW1 3670   1.902   1.652   2.635 -0.8886  0.9725  1.8523
  918SOL    HW2 3671   2.052   1.625   2.680  2.7130 -2.7439  0.1447
  918SOL     MW 3672   1.963   1.599   2.677  0.2116 -0.4164  0.2467
  919SOL     OW 3673   3.076   2.365   2.309  0.0425  0.4948  0.9801
  919SOL    HW1 3674   3.011   2.302   2.283 -1.5955 -0.0804 -1.5066
  919SOL    HW2 3675   3.130   2.372   2.229  1.3066  0.0146 -3.0989
  919SOL     MW 3676   3.075   2.358   2.295 -0.0068  0.3556  0.1138
  920SOL     OW 3677   2.713   2.875   3.087  0.0757  0.3080  0.0425
  920SOL    HW1 3678   2.629   2.903   3.132 -1.6143  0.1589 -1.3025
  920SOL    HW2 3679   2.688   2.803   3.026  1.2631  0.2572 -1.9999
  920SOL     MW 3680   2.699   2.869   3.085  0.0094  0.2816 -0.4044
  921SOL     OW 3681   2.428   2.616   2.597  0.3494 -0.7874 -0.4936
  921SOL    HW1 3682   2.500   2.604   2.536 -0.1532 -1.1697  0.5569
  921SOL    HW2 3683   2.433   2.544   2.658  1.4713  2.7692 -1.5406
  921SOL     MW 3684   2.438   2.605   2.597  0.4311 -0.3686 -0.4932
  922SOL     OW 3685   2.030   2.819   0.280 -0.3052 -0.2466  0.0820
  922SOL    HW1 3686   2.025   2.859   0.190  1.3772  0.9990  0.0463
  922SOL    HW2 3687   2.012   2.722   0.266  1.6104 -1.5362 -0.3405
  922SOL     MW 3688   2.027   2.812   0.266  0.1695 -0.2524  0.0215
  923SOL     OW 3689   2.194   2.894   1.688 -0.0141  0.2668 -0.1557
  923SOL    HW1 3690   2.263   2.872   1.623  0.3706 -1.0492  0.1226
  923SOL    HW2 3691   2.152   2.975   1.654  0.3157 -0.8716 -0.9708
  923SOL     MW 3692   2.198   2.902   1.675  0.0802 -0.0570 -0.2265
  924SOL     OW 3693   1.147   2.734   2.572  0.0439 -0.0454  0.3222
  924SOL    HW1 3694   1.238   2.776   2.581  2.3481  3.3081 -0.4038
  924SOL    HW2 3695   1.123   2.680   2.651  0.3332  1.0594  1.8624
  924SOL     MW 3696   1.156   2.732   2.583  0.3861  0.5428  0.4297
  925SOL     OW 3697   3.040   0.194   2.655 -0.4212  0.0929  0.4514
  925SOL    HW1 3698   2.996   0.227   2.575 -1.3763 -0.4680  0.6465
  925SOL    HW2 3699   3.025   0.257   2.726  2.0863  0.5966  3.0480
  925SOL     MW 3700   3.032   0.207   2.654 -0.2164  0.0854  0.8197
  926SOL     OW 3701   2.704   2.413   2.034  0.2217 -0.7097 -0.3858
  926SOL    HW1 3702   2.743   2.462   2.105  0.0401  2.0240  1.6972
  926SOL    HW2 3703   2.770   2.420   1.957 -0.8651 -1.3084 -0.5944
  926SOL     MW 3704   2.718   2.420   2.033  0.0544 -0.4280 -0.1385
  927SOL     OW 3705   2.341   0.156   0.338  0.2328  0.6290 -0.1601
  927SOL    HW1 3706   2.433   0.128   0.349  2.7345 -2.2487  0.4449
  927SOL    HW2 3707   2.316   0.122   0.254  0.7345  0.8103 -1.3720
  927SOL     MW 3708   2.350   0.148   0.329  0.6291  0.2733 -0.2402
  928SOL     OW 3709   2.171   2.408   1.748 -0.5977  0.8291 -0.5810
  928SOL    HW1 3710   2.125   2.415   1.662  0.6925  2.1090  1.6911
  928SOL    HW2 3711   2.245   2.465   1.753  0.5356 -0.9255  1.1479
  928SOL     MW 3712   2.175   2.417   1.737 -0.2779  0.7665 -0.0531
  929SOL     OW 3713   2.730   2.308   2.455 -0.2242  0.4765  0.6330
  929SOL    HW1 3714   2.782   2.288   2.371 -1.5707  0.5531 -3.4983
  929SOL    HW2 3715   2.784   2.295   2.532 -0.2323  0.7861  0.6596
  929SOL     MW 3716   2.744   2.303   2.454 -0.4029  0.5275  0.0914
  930SOL     OW 3717   2.012   2.842   2.696 -0.1954 -0.1074 -1.1572
  930SOL    HW1 3718   2.039   2.763   2.754 -1.2961 -0.1396  0.6967
  930SOL    HW2 3719   2.095   2.881   2.665  0.8855 -2.0290 -0.8932
  930SOL     MW 3720   2.026   2.837   2.700 -0.1980 -0.3652 -0.8778
  931SOL     OW 3721   3.025   2.713   2.426  0.0056  0.3468  0.4376
  931SOL    HW1 3722   3.079   2.715   2.504 -0.2442  0.6939  1.4251
  931SOL    HW2 3723   3.085   2.737   2.348  0.0070 -4.1843  0.8096
  931SOL     MW 3724   3.040   2.716   2.426 -0.0271 -0.2052  0.6170
  932SOL     OW 3725   2.947   1.904   2.485 -0.2018 -0.4474 -0.0413
  932SOL    HW1 3726   3.036   1.942   2.487  0.3209 -0.2286 -0.8828
  932SOL    HW2 3727   2.893   1.947   2.423 -0.5900 -1.3269  0.0270
  932SOL     MW 3728   2.952   1.915   2.477 -0.1841 -0.5346 -0.1433
  933SOL     OW 3729   2.058   2.794   2.211  0.1426 -0.1549  0.1045
  933SOL    HW1 3730   2.129   2.848   2.236 -2.6525  2.0563  0.0496
  933SOL    HW2 3731   1.984   2.849   2.202  2.0599 -2.7842  1.1815
  933SOL     MW 3732   2.058   2.808   2.213  0.0268 -0.2101  0.2393
  934SOL     OW 3733   2.003   2.706   2.454 -0.3943 -0.2004 -0.3879
  934SOL    HW1 3734   2.007   2.766   2.534  1.2552  0.5632 -1.1183
  934SOL    HW2 3735   2.026   2.756   2.376 -2.4712  0.9933  1.1443
  934SOL     MW 3736   2.006   2.720   2.454 -0.4507  0.0579 -0.2821
  935SOL     OW 3737   2.676   1.569   1.863 -0.5488  0.4484  0.4204
  935SOL    HW1 3738   2.771   1.573   1.845  1.0127 -0.5129 -0.8230
  935SOL    HW2 3739   2.638   1.542   1.776  3.2837 -1.4996 -4.7649
  935SOL     MW 3740   2.684   1.566   1.849  0.1629  0.0645 -0.4278
  936SOL     OW 3741   2.992   2.258   0.001 -0.2558  0.7266 -0.0619
  936SOL    HW1 3742   3.069   2.289   0.056  0.6106  1.2577  1.1326
  936SOL    HW2 3743   2.920   2.317   0.020 -0.2759  0.0818 -2.3786
  936SOL     MW 3744   2.993   2.270   0.011 -0.1441  0.7116 -0.2100
  937SOL     OW 3745   1.973   2.143   2.649  0.5907  0.1417  0.1026
  937SOL    HW1 3746   2.050   2.099   2.680 -0.5653 -1.3752 -2.3032
  937SOL    HW2 3747   1.951   2.114   2.559 -1.1235 -0.5980 -3.3973
  937SOL     MW 3748   1.980   2.133   2.641  0.2120 -0.1560 -0.6766
  938SOL     OW 3749   2.282   1.797   1.920  0.1365 -0.2819 -0.4403
  938SOL    HW1 3750   2.267   1.814   1.829 -2.2649 -0.3623  1.2299
  938SOL    HW2 3751   2.273   1.878   1.969 -0.5732 -1.6189  0.1920
  938SOL     MW 3752   2.279   1.810   1.915 -0.2740 -0.4689 -0.1365
  939SOL     OW 3753   2.767   1.970   2.273  0.4042 -0.5122 -0.0984
  939SOL    HW1 3754   2.781   1.905   2.207  0.3863  0.8200 -2.1343
  939SOL    HW2 3755   2.675   1.970   2.295 -1.6115  0.9382  0.0605
  939SOL     MW 3756   2.757   1.961   2.267  0.1359 -0.1450 -0.3461
  940SOL     OW 3757   2.312   0.156   2.689  0.3471 -0.0462  0.4408
  940SOL    HW1 3758   2.304   0.078   2.641 -0.9472  0.5117 -1.4303
  940SOL    HW2 3759   2.352   0.142   2.778  0.1403 -0.0290  1.9956
  940SOL     MW 3760   2.316   0.144   2.694  0.1490  0.0297  0.3990
  941SOL     OW 3761   0.117   2.442   2.090  0.6636 -0.4310  0.1548
  941SOL    HW1 3762   0.202   2.401   2.091 -2.6999  2.4248 -0.3042
  941SOL    HW2 3763   0.098   2.439   1.996  1.5879 -0.7900  1.3612
  941SOL     MW 3764   0.126   2.436   2.077  0.3418 -0.1016  0.2534
  942SOL     OW 3765   2.837   2.226   2.208 -0.1470  0.2471 -0.6195
  942SOL    HW1 3766   2.776   2.264   2.148 -1.7970 -0.0048 -0.7087
  942SOL    HW2 3767   2.810   2.135   2.239 -1.5380  0.6379  0.8538
  942SOL     MW 3768   2.825   2.219   2.204 -0.5483  0.2654 -0.4369
  943SOL     OW 3769   0.245   2.129   2.254 -0.2698  0.5419 -0.6776
  943SOL    HW1 3770   0.221   2.184   2.336 -1.9361  3.2906 -0.6167
  943SOL    HW2 3771   0.336   2.093   2.277  0.4647  1.3449 -1.0520
  943SOL     MW 3772   0.254   2.132   2.268 -0.3928  1.0105 -0.7189
  944SOL     OW 3773   2.076   2.634   1.983 -0.0807 -0.0903  0.0772
  944SOL    HW1 3774   2.160   2.591   1.998  3.1629  1.7797 -0.0258
  944SOL    HW2 3775   2.068   2.691   2.056  0.9773 -1.0477 -1.7638
  944SOL     MW 3776   2.086   2.636   1.995  0.4869  0.0301 -0.1793
  945SOL     OW 3777   2.733   2.660   2.894  0.4274  0.0533 -0.1330
  945SOL    HW1 3778   2.737   2.562   2.880  1.5614  0.8242  2.1845
  945SOL    HW2 3779   2.750   2.698   2.805 -0.4096 -0.5692 -3.0669
  945SOL     MW 3780   2.736   2.652   2.880  0.4666  0.0729 -0.2143
  946SOL     OW 3781   2.461   2.696   2.248 -0.2712  0.1620  0.0559
  946SOL    HW1 3782   2.487   2.741   2.168  1.3737 -0.0803 -0.9925
  946SOL    HW2 3783   2.390   2.618   2.226 -1.3578 -1.9269 -1.6607
  946SOL     MW 3784   2.455   2.691   2.234 -0.1975 -0.1456 -0.3089
  947SOL     OW 3785   1.955   0.050   0.295  0.6413  0.0381 -0.5439
  947SOL    HW1 3786   1.911  -0.039   0.286 -1.0054 -3.1148  0.5429
  947SOL    HW2 3787   2.002   0.051   0.382  1.3220  2.2965 -1.4790
  947SOL     MW 3788   1.956   0.039   0.305  0.5138 -0.0799 -0.5239
  948SOL     OW 3789   1.795   3.010   2.677  0.4630 -0.5101 -0.4860
  948SOL    HW1 3790   1.868   2.951   2.683 -0.8135 -0.6557  1.8874
  948SOL    HW2 3791   1.795   3.022   2.578  0.2900  0.7466 -0.7189
  948SOL     MW 3792   1.805   3.003   2.665  0.2717 -0.3635 -0.2036
  949SOL     OW 3793   2.517   1.928   2.327  0.1092  0.0982  0.3250
  949SOL    HW1 3794   2.485   1.841   2.325  0.8344 -0.8502  0.7083
  949SOL    HW2 3795   2.441   1.980   2.355  1.0798  0.4281  0.1090
  949SOL     MW 3796   2.503   1.923   2.331  0.3329  0.0166  0.3471
  950SOL     OW 3797   2.338   2.568   2.911 -0.2192 -0.0857 -0.1727
  950SOL    HW1 3798   2.401   2.503   2.878 -0.4530 -0.2997 -1.0700
  950SOL    HW2 3799   2.257   2.558   2.868  1.3977 -0.0555 -1.1544
  950SOL     MW 3800   2.336   2.558   2.901 -0.0367 -0.1100 -0.4206
  951SOL     OW 3801   3.057   2.132   2.870 -0.2755  0.4320  0.0952
  951SOL    HW1 3802   3.040   2.166   2.957  2.7333  1.2968 -1.0127
  951SOL    HW2 3803   3.095   2.047   2.876 -0.4488  1.2193  0.6785
  951SOL     MW 3804   3.060   2.126   2.882  0.0986  0.6500  0.0260
  952SOL     OW 3805   3.036   1.680   2.134  0.5358 -0.1634 -0.4120
  952SOL    HW1 3806   2.970   1.739   2.100 -0.3573 -2.5617 -0.5626
  952SOL    HW2 3807   3.105   1.740   2.154  0.5964 -2.0144  1.7555
  952SOL     MW 3808   3.036   1.696   2.132  0.4260 -0.7240 -0.1459
  953SOL     OW 3809   1.936   1.748   2.889  0.3920  0.0805  0.3111
  953SOL    HW1 3810   1.852   1.712   2.937 -0.1062 -1.7939  0.8818
  953SOL    HW2 3811   1.942   1.677   2.818  0.9707 -2.8649  0.9702
  953SOL     MW 3812   1.926   1.734   2.886  0.4026 -0.5555  0.4733
  954SOL     OW 3813   2.422   2.118   2.853  0.8698  0.2857  0.0626
  954SOL    HW1 3814   2.342   2.070   2.817  2.7919  1.9532  2.1160
  954SOL    HW2 3815   2.499   2.092   2.806  2.4029  1.5240  0.6194
  954SOL     MW 3816   2.422   2.108   2.842  1.3257  0.6691  0.4070
  955SOL     OW 3817   1.552   1.619   2.559  0.1538 -0.7943 -0.2554
  955SOL    HW1 3818   1.534   1.604   2.461 -4.8608  0.7317 -0.1547
  955SOL    HW2 3819   1.631   1.684   2.562  3.0023  0.9544  1.4333
  955SOL     MW 3820   1.560   1.626   2.546 -0.1320 -0.3622 -0.0193
  956SOL     OW 3821   2.711   2.388   2.840 -0.1309 -0.1612  0.1886
  956SOL    HW1 3822   2.729   2.378   2.935 -3.3953 -0.6021  0.3013
  956SOL    HW2 3823   2.803   2.368   2.813  1.8202  0.0086 -0.6937
  956SOL     MW 3824   2.725   2.384   2.849 -0.3042 -0.1970  0.0870
  957SOL     OW 3825   2.235   2.861   0.456 -0.3718  0.4594  0.1535
  957SOL    HW1 3826   2.171   2.845   0.391  1.8056 -1.8625  2.3748
  957SOL    HW2 3827   2.246   2.788   0.513 -0.1574  1.0892 -2.0609
  957SOL     MW 3828   2.228   2.849   0.455 -0.0562  0.2362  0.1544
  958SOL     OW 3829   2.068   2.607   2.849 -0.3720  0.7580  0.4053
  958SOL    HW1 3830   2.026   2.547   2.796  1.1068 -1.1729  2.4421
  958SOL    HW2 3831   2.026   2.608   2.938  2.0080 -1.0082  0.8478
  958SOL     MW 3832   2.057   2.599   2.854  0.1371  0.2702  0.7324
  959SOL     OW 3833   2.469   2.739   0.393  0.4269  0.3975  0.2189
  959SOL    HW1 3834   2.497   2.774   0.303 -1.5161 -0.0380 -2.3604
  959SOL    HW2 3835   2.385   2.788   0.400  0.7557  0.4860 -1.0073
  959SOL     MW 3836   2.461   2.750   0.382  0.2139  0.3517 -0.2832
  960SOL     OW 3837   1.880   2.324   2.310  0.0607 -0.1346 -0.0423
  960SOL    HW1 3838   1.868   2.229   2.325  1.4853 -0.7891  0.8651
  960SOL    HW2 3839   1.828   2.352   2.383 -0.1390 -2.3723 -0.8157
  960SOL     MW 3840   1.872   2.315   2.322  0.2223 -0.5162 -0.0246
  961SOL     OW 3841   2.166   2.326   2.303 -0.0091  0.0478 -0.4868
  961SOL    HW1 3842   2.071   2.338   2.287 -1.5402 -0.6634 -1.6486
  961SOL    HW2 3843   2.176   2.370   2.390 -1.7813 -2.0309 -1.4034
  961SOL     MW 3844   2.154   2.333   2.313 -0.4449 -0.3203 -0.7610
  962SOL     OW 3845   2.176   2.001   2.768  0.0504  0.5896  0.0771
  962SOL    HW1 3846   2.156   2.001   2.865  1.7347  1.6915 -0.0559
  962SOL    HW2 3847   2.197   1.909   2.745  2.1994 -2.3177  0.8502
  962SOL     MW 3848   2.176   1.989   2.778  0.5562  0.3514  0.1616
  963SOL     OW 3849   1.794   2.488   2.088  0.2105  0.3135  0.1981
  963SOL    HW1 3850   1.811   2.437   2.167 -0.4556 -0.2438 -1.7490
  963SOL    HW2 3851   1.863   2.461   2.025  2.3751  1.0300  0.3761
  963SOL     MW 3852   1.805   2.478   2.090  0.4082  0.3345 -0.0353
  964SOL     OW 3853   1.816   1.949   2.724  0.0112  0.0314 -0.5646
  964SOL    HW1 3854   1.872   2.028   2.700 -0.8141 -1.3981 -1.3960
  964SOL    HW2 3855   1.856   1.881   2.784 -1.7283 -2.6796  0.8627
  964SOL     MW 3856   1.829   1.950   2.728 -0.3272 -0.5149 -0.4860
  965SOL     OW 3857   2.276   2.678   0.657  0.2189 -0.3181 -0.1160
  965SOL    HW1 3858   2.265   2.583   0.633 -2.1516 -1.1112  2.3985
  965SOL    HW2 3859   2.323   2.671   0.740  1.6636 -0.2737 -0.2736
  965SOL     MW 3860   2.281   2.664   0.665  0.0968 -0.4169  0.1950
  966SOL     OW 3861   2.656   2.599   2.423 -0.2829  0.0414 -0.5405
  966SOL    HW1 3862   2.590   2.617   2.344  0.8536 -1.4871 -0.1595
  966SOL    HW2 3863   2.690   2.507   2.407  1.5525  0.1211  2.1216
  966SOL     MW 3864   2.651   2.589   2.411  0.1092 -0.1498 -0.1390
  967SOL     OW 3865   2.789   3.084   2.943 -0.1177 -0.4219 -0.7384
  967SOL    HW1 3866   2.752   3.007   2.993  2.6516 -0.4719  0.3545
  967SOL    HW2 3867   2.724   3.118   2.888  2.4219  2.5127 -0.1461
  967SOL     MW 3868   2.776   3.078   2.943  0.5827 -0.0413 -0.5161
  968SOL     OW 3869   3.032   2.635   2.965  0.6878  0.2001  0.4467
  968SOL    HW1 3870   2.942   2.656   2.936  0.5227  1.3186  1.5724
  968SOL    HW2 3871   3.062   2.570   2.891  0.0117 -1.1193 -1.4700
  968SOL     MW 3872   3.024   2.629   2.951  0.5768  0.1736  0.3423
  969SOL     OW 3873   1.613   2.157   1.668  0.2409 -0.2124  0.1054
  969SOL    HW1 3874   1.676   2.086   1.683  0.3671  1.4024  0.9499
  969SOL    HW2 3875   1.580   2.180   1.758 -1.6929 -0.8426  2.5128
  969SOL     MW 3876   1.617   2.150   1.682  0.0024 -0.0825  0.5344
  970SOL     OW 3877   1.745   1.817   1.919  0.2554  0.2652 -0.0195
  970SOL    HW1 3878   1.785   1.742   1.949 -2.0512  3.5746 -0.2953
  970SOL    HW2 3879   1.653   1.801   1.928  3.4741 -2.8621 -1.7725
  970SOL     MW 3880   1.738   1.805   1.924  0.3757  0.2892 -0.2872
  971SOL     OW 3881   1.794   0.045   2.409  0.4816 -0.1593  0.1109
  971SOL    HW1 3882   1.824  -0.001   2.330  1.3492  0.2781 -1.0186
  971SOL    HW2 3883   1.866   0.108   2.433 -0.5264  0.4811 -0.6044
  971SOL     MW 3884   1.807   0.047   2.402  0.4631 -0.0171 -0.1325
  972SOL     OW 3885   0.255   2.901   2.472 -0.2011  0.3522 -0.0835
  972SOL    HW1 3886   0.297   2.814   2.492  0.2723 -1.6080  0.1979
  972SOL    HW2 3887   0.307   2.957   2.523 -1.8537  1.0325  1.0985
  972SOL     MW 3888   0.268   2.897   2.482 -0.3567  0.1833  0.1096
  973SOL     OW 3889   2.630   0.019   2.093  0.0158 -0.2398 -0.3528
  973SOL    HW1 3890   2.615  -0.077   2.082 -0.5120  2.1103  0.3422
  973SOL    HW2 3891   2.630   0.057   2.008 -0.2919  0.1987  1.4485
  973SOL     MW 3892   2.628   0.011   2.081 -0.0945  0.1281 -0.0235
  974SOL     OW 3893   2.045   0.227   2.740 -0.0390 -0.9621  0.0867
  974SOL    HW1 3894   2.136   0.204   2.718 -1.4311 -3.2075  0.6253
  974SOL    HW2 3895   2.010   0.154   2.786 -1.3083 -0.1752  1.9617
  974SOL     MW 3896   2.052   0.214   2.743 -0.3902 -1.1546  0.4051
  975SOL     OW 3897   2.196   2.520   2.495  0.5653 -0.2704  0.2472
  975SOL    HW1 3898   2.279   2.559   2.521  0.3904  1.6386  0.6036
  975SOL    HW2 3899   2.145   2.602   2.487  1.0132 -0.2676  2.9548
  975SOL     MW 3900   2.200   2.536   2.497  0.6013 -0.0182  0.6514
  976SOL     OW 3901   0.223   0.380   1.788 -0.5609 -0.0384 -0.2057
  976SOL    HW1 3902   0.295   0.323   1.779 -2.5372  1.9053 -1.8626
  976SOL    HW2 3903   0.149   0.327   1.748 -2.5368 -1.3366 -0.7643
  976SOL     MW 3904   0.223   0.366   1.781 -1.0823  0.0468 -0.4980
  977SOL     OW 3905   1.746   2.688   2.525 -0.0732  0.2960 -0.0748
  977SOL    HW1 3906   1.715   2.601   2.541 -1.2796 -1.1491  1.1879
  977SOL    HW2 3907   1.839   2.681   2.494  0.9339  1.7851 -1.7954
  977SOL     MW 3908   1.754   2.676   2.523 -0.0995  0.3018 -0.1352
   3.10000   3.10000   3.10000
