977 TIP4P/2005f water molecules t=   0.24000 step= 240
 3908
    1SOL     OW    1   0.251   0.774   0.013  0.6792 -0.5025 -0.1540
    1SOL    HW1    2   0.240   0.801  -0.077  2.0069 -1.2338 -0.3170
    1SOL    HW2    3   0.247   0.676   0.007 -0.2630 -1.9837  1.8264
    1SOL     MW    4   0.249   0.765   0.000  0.7301 -0.7944  0.0858
    2SOL     OW    5   0.361   3.026   1.150 -0.0480  0.0341 -0.0911
    2SOL    HW1    6   0.401   3.107   1.116 -1.0778 -0.1179  3.2083
    2SOL    HW2    7   0.265   3.046   1.146 -0.1465  0.4936  1.8798
    2SOL     MW    8   0.353   3.040   1.145 -0.1969  0.0747  0.6043
    3SOL     OW    9   2.678   0.396   0.910 -0.2309  0.0080  0.7259
    3SOL    HW1   10   2.701   0.476   0.863  1.0605  2.5484 -2.3784
    3SOL    HW2   11   2.702   0.417   0.997  0.7002 -1.0977  0.0180
    3SOL     MW   12   2.684   0.409   0.915  0.0623  0.1973  0.2229
    4SOL     OW   13   3.081   1.819   0.643 -0.4936  0.5075 -0.2382
    4SOL    HW1   14   3.002   1.846   0.601  1.8828 -1.1907  1.1955
    4SOL    HW2   15   3.125   1.760   0.584 -3.3806  1.0668 -2.3441
    4SOL     MW   16   3.076   1.815   0.630 -0.5610  0.3573 -0.3269
    5SOL     OW   17   1.704   1.446   0.511  0.5319  0.1287 -0.1558
    5SOL    HW1   18   1.756   1.400   0.579 -1.6574 -1.5647  4.0210
    5SOL    HW2   19   1.613   1.449   0.547  0.0612  1.2268  1.5593
    5SOL     MW   20   1.699   1.440   0.525  0.1809  0.0501  0.6216
    6SOL     OW   21   0.856   1.383   0.606  0.6906  1.0267  0.0400
    6SOL    HW1   22   0.770   1.394   0.648 -0.6440  1.5008  0.7910
    6SOL    HW2   23   0.886   1.289   0.633  3.2372  0.5962  0.5525
    6SOL     MW   24   0.849   1.372   0.615  0.8505  1.0324  0.2067
    7SOL     OW   25   1.955   1.073   0.005 -0.0245  0.1522  0.5053
    7SOL    HW1   26   2.002   1.151  -0.018 -0.5198 -0.5901 -1.6664
    7SOL    HW2   27   1.979   1.051   0.097 -3.5193 -4.0041  0.6434
    7SOL     MW   28   1.965   1.081   0.014 -0.5510 -0.4941  0.2370
    8SOL     OW   29   1.002   1.291   1.055  0.5805  0.3946 -0.2023
    8SOL    HW1   30   1.085   1.250   1.091 -1.3074 -0.5028 -0.7248
    8SOL    HW2   31   0.929   1.226   1.071 -3.4134  0.9929 -0.0298
    8SOL     MW   32   1.003   1.277   1.062 -0.1955  0.3552 -0.2484
    9SOL     OW   33   1.009   0.475   1.386  0.2739  0.1632 -0.5303
    9SOL    HW1   34   0.966   0.399   1.342  1.4097 -1.5893 -1.7423
    9SOL    HW2   35   1.048   0.445   1.465  0.7574 -0.8996 -1.6307
    9SOL     MW   36   1.009   0.461   1.390  0.4875 -0.2083 -0.8354
   10SOL     OW   37   0.302   0.861   0.474  0.1725  0.0752 -0.5128
   10SOL    HW1   38   0.395   0.868   0.461 -1.6695 -0.1459  0.1774
   10SOL    HW2   39   0.259   0.891   0.555 -0.6433 -0.6179 -0.6010
   10SOL     MW   40   0.308   0.866   0.483 -0.1782 -0.0454 -0.4334
   11SOL     OW   41   0.918   1.102   1.549 -0.4814 -0.1315  0.6524
   11SOL    HW1   42   0.915   1.076   1.644 -0.8510  1.2512  1.0912
   11SOL    HW2   43   0.850   1.034   1.515 -1.3152  0.2515  2.1166
   11SOL     MW   44   0.909   1.090   1.557 -0.6402  0.1015  0.9035
   12SOL     OW   45   3.095   1.096   0.846  0.3950  0.2848 -0.0776
   12SOL    HW1   46   3.160   1.157   0.877  3.1686  1.7670 -1.7936
   12SOL    HW2   47   3.061   1.128   0.759  0.6687  4.0909  1.4645
   12SOL     MW   48   3.099   1.109   0.839  0.7971  0.9825 -0.1005
   13SOL     OW   49   1.933   1.442   1.430  0.1994 -0.1232 -0.0617
   13SOL    HW1   50   1.974   1.407   1.352 -1.1429 -2.5754 -0.8673
   13SOL    HW2   51   1.883   1.520   1.399 -0.7371  0.1253 -0.7953
   13SOL     MW   52   1.932   1.447   1.416 -0.1012 -0.4140 -0.2648
   14SOL     OW   53   0.615   0.344   1.766  0.5108 -0.1235 -0.4434
   14SOL    HW1   54   0.611   0.267   1.708 -0.1030  0.5554 -0.8341
   14SOL    HW2   55   0.700   0.354   1.800 -0.5411 -0.7189  0.8876
   14SOL     MW   56   0.626   0.336   1.763  0.2910 -0.1125 -0.3193
   15SOL     OW   57   1.982   0.529   0.922 -0.0478  0.7142 -0.3002
   15SOL    HW1   58   1.987   0.536   1.021  1.4779 -3.0346  0.7533
   15SOL    HW2   59   2.071   0.507   0.887  0.1317 -0.4766  0.6421
   15SOL     MW   60   1.995   0.527   0.931  0.1772  0.0625 -0.0369
   16SOL     OW   61   0.198   1.797   0.295  0.4957 -0.0641  0.7142
   16SOL    HW1   62   0.286   1.755   0.294 -3.1506 -1.0187  0.7954
   16SOL    HW2   63   0.212   1.883   0.327 -1.2584 -1.9597  2.3422
   16SOL     MW   64   0.212   1.803   0.299 -0.2169 -0.4402  0.9397
   17SOL     OW   65   1.084   0.815   1.449 -0.0719  0.4354  0.3654
   17SOL    HW1   66   1.129   0.816   1.538  0.7711 -0.5557 -0.2303
   17SOL    HW2   67   1.002   0.772   1.467 -1.0994 -2.1769 -1.6216
   17SOL     MW   68   1.079   0.810   1.463 -0.0962 -0.0401  0.0247
   18SOL     OW   69   0.023   1.546   0.412  0.1664 -0.4723  0.3570
   18SOL    HW1   70   0.067   1.603   0.344  0.3790  2.3402 -0.6024
   18SOL    HW2   71   0.006   1.462   0.363 -0.6836  0.7891 -1.0527
   18SOL     MW   72   0.027   1.542   0.397  0.0823  0.0652  0.0444
   19SOL     OW   73   0.133   1.282   1.024  0.2065  0.3312 -0.0890
   19SOL    HW1   74   0.150   1.360   0.968 -0.6436  0.0589  1.4501
   19SOL    HW2   75   0.039   1.280   1.043  0.5159  2.9530 -1.1066
   19SOL     MW   76   0.123   1.292   1.019  0.1352  0.6412 -0.0202
   20SOL     OW   77   0.451   2.161   1.286  0.1313 -0.2821  0.1105
   20SOL    HW1   78   0.402   2.102   1.227 -0.1860  2.7689  1.1195
   20SOL    HW2   79   0.379   2.185   1.346  0.7052  0.2202 -1.6156
   20SOL     MW   80   0.435   2.156   1.286  0.1651  0.1867  0.0159
   21SOL     OW   81   0.554   0.901   0.363 -0.0505 -0.0286  0.0606
   21SOL    HW1   82   0.626   0.847   0.392 -2.9814  2.5026  0.5860
   21SOL    HW2   83   0.524   0.858   0.287  0.5756  0.0999 -0.7165
   21SOL     MW   84   0.560   0.888   0.357 -0.3546  0.3223  0.0274
   22SOL     OW   85   1.558   0.574   1.133 -0.6536 -0.3719  0.4020
   22SOL    HW1   86   1.612   0.521   1.070  0.5783 -0.4787 -0.5876
   22SOL    HW2   87   1.512   0.642   1.079 -0.3738 -0.0157  1.8891
   22SOL     MW   88   1.559   0.576   1.118 -0.4541 -0.3390  0.4676
   23SOL     OW   89   3.038   0.736   0.727 -0.3387  0.3585  0.4304
   23SOL    HW1   90   3.082   0.648   0.729  0.7747 -1.5637  1.8833
   23SOL    HW2   91   3.103   0.807   0.731 -1.3871 -3.5167  0.2760
   23SOL     MW   92   3.052   0.734   0.727 -0.3301 -0.4064  0.6017
   24SOL     OW   93   2.060   2.158   0.037 -0.8671  0.7253  0.1066
   24SOL    HW1   94   2.050   2.169   0.132  0.6578  2.2786  0.3771
   24SOL    HW2   95   2.117   2.081   0.019  2.1525 -0.1535 -3.0950
   24SOL     MW   96   2.066   2.149   0.047 -0.2675  0.8143 -0.2801
   25SOL     OW   97   0.217   1.443   0.563  0.8828  0.2151 -0.4197
   25SOL    HW1   98   0.129   1.465   0.523 -2.4241  1.2663 -3.1852
   25SOL    HW2   99   0.280   1.446   0.488  1.8008 -2.3212  0.1853
   25SOL     MW  100   0.214   1.446   0.548  0.5676  0.0192 -0.7047
   26SOL     OW  101   2.039   0.962   0.383  0.4154 -0.1177 -0.2294
   26SOL    HW1  102   1.954   0.992   0.424  0.1692 -0.7823  1.5883
   26SOL    HW2  103   2.065   1.032   0.314 -0.5949  0.0712  0.8552
   26SOL     MW  104   2.031   0.975   0.379  0.2496 -0.1805  0.1535
   27SOL     OW  105   1.974   1.408   0.242 -0.0283 -0.0987  0.4648
   27SOL    HW1  106   1.901   1.345   0.257  0.4747  0.5518  0.1532
   27SOL    HW2  107   1.969   1.466   0.317  1.5599  1.4249  0.8669
   27SOL     MW  108   1.964   1.407   0.254  0.2476  0.1882  0.4767
   28SOL     OW  109   0.397   0.948   1.869  0.1084 -0.2610 -0.1948
   28SOL    HW1  110   0.331   0.889   1.908  1.9341  0.9706  1.1275
   28SOL    HW2  111   0.420   0.904   1.789  2.7239  2.6954 -0.0796
   28SOL     MW  112   0.392   0.934   1.864  0.6943  0.2916 -0.0051
   29SOL     OW  113   0.240   1.456   0.842  0.1898 -0.1942 -0.4125
   29SOL    HW1  114   0.247   1.544   0.869  1.5828  0.1766 -0.0584
   29SOL    HW2  115   0.236   1.463   0.744  2.1959 -2.3962 -2.8776
   29SOL     MW  116   0.240   1.468   0.833  0.6383 -0.4358 -0.6910
   30SOL     OW  117   0.908   1.012   1.146 -0.0901 -0.2819 -0.0475
   30SOL    HW1  118   0.830   1.055   1.187 -0.7885  1.4573 -1.8849
   30SOL    HW2  119   0.982   1.028   1.210  0.6802  0.0674 -0.1065
   30SOL     MW  120   0.908   1.020   1.160 -0.0806 -0.0064 -0.2977
   31SOL     OW  121   0.460   0.254   0.241 -0.4096  0.8135 -0.0873
   31SOL    HW1  122   0.472   0.167   0.290  0.7233  1.0691  0.6346
   31SOL    HW2  123   0.457   0.217   0.146  1.3285 -3.7992 -0.9285
   31SOL     MW  124   0.461   0.238   0.235 -0.0308  0.2386 -0.1030
   32SOL     OW  125   2.692   1.047   1.127 -0.0098  0.0364 -0.2378
   32SOL    HW1  126   2.667   0.954   1.136 -1.1632 -0.7740 -0.0895
   32SOL    HW2  127   2.787   1.049   1.105 -2.4084 -1.3295 -0.1227
   32SOL     MW  128   2.701   1.035   1.125 -0.4784 -0.2508 -0.2030
   33SOL     OW  129   1.759   1.258   0.333 -0.3145 -0.3644 -0.4394
   33SOL    HW1  130   1.779   1.170   0.374  1.9227  0.3547 -1.2920
   33SOL    HW2  131   1.733   1.312   0.409  0.3024  0.2069  1.3440
   33SOL     MW  132   1.759   1.254   0.348  0.0620 -0.1942 -0.3166
   34SOL     OW  133   1.261   1.863   1.116 -0.2401 -0.4217  0.3304
   34SOL    HW1  134   1.172   1.885   1.151  1.7631  1.8593 -0.0546
   34SOL    HW2  135   1.321   1.869   1.195 -0.5058 -0.5864  1.7868
   34SOL     MW  136   1.257   1.866   1.131 -0.0108 -0.1425  0.4718
   35SOL     OW  137   0.372   0.048   1.856  0.3765  0.2393  0.3738
   35SOL    HW1  138   0.389  -0.012   1.931 -0.8455  0.0014  2.1542
   35SOL    HW2  139   0.402   0.009   1.774  1.8031  2.2225 -3.0930
   35SOL     MW  140   0.378   0.035   1.855  0.4035  0.4696  0.1513
   36SOL     OW  141   1.904   1.929   0.528  0.3698  0.7061  0.7720
   36SOL    HW1  142   1.900   1.914   0.429 -2.4177  0.9408  0.3767
   36SOL    HW2  143   1.890   1.841   0.566  0.7610  1.3103  1.8102
   36SOL     MW  144   1.901   1.915   0.520  0.0536  0.8168  0.8568
   37SOL     OW  145   1.752   1.992   0.935 -0.5161  0.0351 -0.0166
   37SOL    HW1  146   1.686   1.937   0.895  1.7337  2.4991 -0.4824
   37SOL    HW2  147   1.690   2.040   1.005  0.0799 -0.7712  2.0425
   37SOL     MW  148   1.735   1.991   0.939 -0.1407  0.2538  0.1936
   38SOL     OW  149   2.868   0.932   0.217 -0.2442  0.5452 -0.1263
   38SOL    HW1  150   2.908   0.912   0.303 -0.6886  1.5181 -1.8129
   38SOL    HW2  151   2.927   0.882   0.155 -0.1445 -0.3695 -3.0072
   38SOL     MW  152   2.881   0.923   0.221 -0.2897  0.5529 -0.7289
   39SOL     OW  153   1.456   0.689   0.844 -0.0158  0.4524  0.7478
   39SOL    HW1  154   1.460   0.596   0.875  2.1176  0.3793  0.4716
   39SOL    HW2  155   1.405   0.731   0.918  0.0178 -0.8820  0.5810
   39SOL     MW  156   1.450   0.682   0.858  0.2701  0.2667  0.6893
   40SOL     OW  157   1.294   1.875   0.276 -0.2166  0.0272 -0.0214
   40SOL    HW1  158   1.291   1.796   0.328  0.9243  0.3289  0.3861
   40SOL    HW2  159   1.302   1.942   0.344  0.3848 -0.3695 -0.6592
   40SOL     MW  160   1.295   1.873   0.292  0.0133  0.0146 -0.0518
   41SOL     OW  161   0.592   0.526   1.566 -0.1344 -0.2685  0.4535
   41SOL    HW1  162   0.663   0.583   1.567 -0.5226 -0.7320 -0.1946
   41SOL    HW2  163   0.596   0.472   1.648 -0.9492 -3.3971  1.9373
   41SOL     MW  164   0.602   0.526   1.577 -0.2931 -0.7424  0.5638
   42SOL     OW  165   1.337   3.075   1.935 -0.0149 -0.3365  0.3875
   42SOL    HW1  166   1.238   3.050   1.936  1.5946 -2.7711 -1.6572
   42SOL    HW2  167   1.376   3.004   1.986 -2.7709  0.7262 -0.8857
   42SOL     MW  168   1.329   3.062   1.942 -0.1661 -0.5175 -0.0503
   43SOL     OW  169   1.614   0.225   1.595  0.1864  0.4878  0.0543
   43SOL    HW1  170   1.679   0.156   1.563  0.4471 -0.4771 -0.8081
   43SOL    HW2  171   1.541   0.166   1.635 -0.8037 -0.1682 -1.1443
   43SOL     MW  172   1.613   0.208   1.596  0.0902  0.2740 -0.2176
   44SOL     OW  173   1.319   0.761   1.075  0.2903  0.2122  0.0045
   44SOL    HW1  174   1.348   0.855   1.071  0.0099  0.4234  1.6018
   44SOL    HW2  175   1.327   0.738   1.167 -0.4093 -1.2125  1.3908
   44SOL     MW  176   1.324   0.770   1.087  0.1610  0.0521  0.3981
   45SOL     OW  177   1.079   0.746   0.802  0.3901 -0.3637 -0.2965
   45SOL    HW1  178   1.051   0.714   0.887 -0.1175  0.3784  1.2842
   45SOL    HW2  179   1.157   0.693   0.767  2.7687 -2.8001 -1.5376
   45SOL     MW  180   1.086   0.735   0.809  0.6370 -0.5872 -0.2517
   46SOL     OW  181   0.602   1.111   0.600 -0.1672  0.3229  0.1346
   46SOL    HW1  182   0.592   1.145   0.506 -0.4753  0.1590 -2.3873
   46SOL    HW2  183   0.678   1.052   0.595 -1.4990  1.1350 -0.7050
   46SOL     MW  184   0.610   1.107   0.587 -0.3836  0.4085 -0.3089
   47SOL     OW  185   0.127   1.933   1.829  0.2233  0.0401 -0.1988
   47SOL    HW1  186   0.180   1.865   1.796 -1.8030  0.8293  0.6154
   47SOL    HW2  187   0.127   1.917   1.924  0.8287 -1.0539  0.3795
   47SOL     MW  188   0.134   1.922   1.837  0.0358 -0.0001 -0.0150
   48SOL     OW  189   1.019   0.660   1.060 -0.2353  0.1379 -0.3756
   48SOL    HW1  190   0.937   0.693   1.102 -0.5798 -1.3504  1.0917
   48SOL    HW2  191   1.095   0.715   1.091 -2.2303 -0.7086  1.8304
   48SOL     MW  192   1.018   0.672   1.069 -0.5439 -0.1702  0.1091
   49SOL     OW  193   1.861   0.761   1.600  0.3718 -0.1819  0.2748
   49SOL    HW1  194   1.793   0.726   1.671  3.0309 -1.6298  1.6614
   49SOL    HW2  195   1.910   0.680   1.573 -0.1642  0.5465 -1.8376
   49SOL     MW  196   1.859   0.746   1.606  0.6520 -0.2769  0.1790
   50SOL     OW  197   1.301   0.988   0.562 -0.0661 -0.4233 -0.6548
   50SOL    HW1  198   1.263   1.028   0.642 -1.0415  0.0911  0.3875
   50SOL    HW2  199   1.339   0.905   0.591 -0.5123  3.2396 -3.5776
   50SOL     MW  200   1.301   0.983   0.576 -0.2537  0.1279 -0.9029
   51SOL     OW  201   0.313   2.852   0.915  0.4981 -0.4048  0.4682
   51SOL    HW1  202   0.392   2.845   0.855 -2.0230 -0.6250  0.4938
   51SOL    HW2  203   0.341   2.917   0.983 -0.5643  0.7216  0.2866
   51SOL     MW  204   0.327   2.860   0.916  0.0253 -0.2852  0.4476
   52SOL     OW  205   0.823   1.858   0.393 -0.5374 -0.1151 -0.1732
   52SOL    HW1  206   0.764   1.907   0.448 -0.2940 -0.3203 -0.1349
   52SOL    HW2  207   0.775   1.822   0.316 -0.4718 -0.4231 -1.0403
   52SOL     MW  208   0.809   1.860   0.390 -0.4966 -0.1828 -0.2825
   53SOL     OW  209   0.390   2.041   0.600  0.7600 -0.0879 -0.5365
   53SOL    HW1  210   0.362   2.031   0.512  1.4722 -0.1570  1.8310
   53SOL    HW2  211   0.392   2.133   0.619  0.1943  3.7100  3.0138
   53SOL     MW  212   0.387   2.052   0.591  0.7794  0.4041  0.2443
   54SOL     OW  213   2.212   0.828   0.853  0.2427 -0.1836  0.3832
   54SOL    HW1  214   2.249   0.803   0.766  0.2300 -1.2746  0.0753
   54SOL    HW2  215   2.120   0.832   0.834  0.0477 -0.4401  0.1306
   54SOL     MW  216   2.205   0.825   0.839  0.2153 -0.3614  0.3092
   55SOL     OW  217   0.516   1.449   1.554  0.4543  0.4018  0.3276
   55SOL    HW1  218   0.482   1.477   1.471  0.1160 -0.3305  1.8091
   55SOL    HW2  219   0.604   1.417   1.535  1.3662  1.9445 -0.6643
   55SOL     MW  220   0.523   1.448   1.541  0.5300  0.5087  0.3922
   56SOL     OW  221   0.535   0.760   0.097  0.2224  0.0433 -0.3416
   56SOL    HW1  222   0.559   0.845   0.056  3.1409  0.6864 -1.5768
   56SOL    HW2  223   0.447   0.748   0.069  2.4900  0.1593 -0.2857
   56SOL     MW  224   0.526   0.770   0.088  0.9067  0.1435 -0.4972
   57SOL     OW  225   1.255   1.205   1.170 -0.0243  0.3305  0.6320
   57SOL    HW1  226   1.341   1.234   1.205  0.9341 -0.0619  0.6051
   57SOL    HW2  227   1.214   1.143   1.240 -0.8754 -1.0192  1.7452
   57SOL     MW  228   1.261   1.201   1.184 -0.0101  0.1006  0.7753
   58SOL     OW  229   0.699   1.093   1.286 -0.2165  0.2573  0.4782
   58SOL    HW1  230   0.642   1.172   1.276  1.8609 -0.5959  0.2403
   58SOL    HW2  231   0.676   1.049   1.369 -2.7108 -3.7652 -1.2313
   58SOL     MW  232   0.689   1.098   1.296 -0.2715 -0.3860  0.2213
   59SOL     OW  233   1.523   1.612   0.271 -0.1884  0.3169 -0.1111
   59SOL    HW1  234   1.586   1.563   0.318 -1.6482  1.9209  1.3658
   59SOL    HW2  235   1.465   1.636   0.344  1.0537 -0.1256  0.6509
   59SOL     MW  236   1.524   1.609   0.287 -0.2171  0.4702  0.1843
   60SOL     OW  237   3.082   0.168   1.643 -0.0427  0.2202 -1.0847
   60SOL    HW1  238   2.998   0.220   1.648  2.2340  0.7978  0.6056
   60SOL    HW2  239   3.063   0.088   1.692 -3.2049 -0.0217  0.0784
   60SOL     MW  240   3.068   0.164   1.650 -0.1596  0.2645 -0.7082
   61SOL     OW  241   2.010   1.496   3.071  0.3849  0.5041 -0.1268
   61SOL    HW1  242   1.983   1.491   3.160 -0.6809  0.8449  0.7092
   61SOL    HW2  243   2.058   1.420   3.044  0.0100  2.0504  4.6081
   61SOL     MW  244   2.013   1.486   3.079  0.1948  0.7531  0.6082
   62SOL     OW  245   0.611   1.639   0.565 -0.0778 -0.5521  0.6206
   62SOL    HW1  246   0.658   1.601   0.499 -1.1274  0.3785  2.5765
   62SOL    HW2  247   0.590   1.570   0.628 -0.0124  0.4910 -2.1145
   62SOL     MW  248   0.614   1.625   0.565 -0.2076 -0.2917  0.5178
   63SOL     OW  249   1.705   0.715   0.713  0.1816 -0.4715 -0.6025
   63SOL    HW1  250   1.676   0.756   0.632  3.6949  0.7701 -1.4623
   63SOL    HW2  251   1.631   0.694   0.771 -1.3571 -2.6116 -2.2332
   63SOL     MW  252   1.691   0.718   0.710  0.4421 -0.5900 -0.9311
   64SOL     OW  253   0.263   1.700   0.988 -0.4523  0.6445 -0.1858
   64SOL    HW1  254   0.347   1.729   0.972 -3.5692 -2.4132 -2.0872
   64SOL    HW2  255   0.201   1.773   1.000  0.2793 -0.5165 -1.2257
   64SOL     MW  256   0.266   1.714   0.988 -0.7670  0.0879 -0.5738
   65SOL     OW  257   1.510   2.231   0.326  0.8100  1.0635 -0.0252
   65SOL    HW1  258   1.598   2.221   0.287  1.8147 -0.6253  0.2522
   65SOL    HW2  259   1.502   2.298   0.398 -2.2045 -1.4470 -2.2395
   65SOL     MW  260   1.520   2.239   0.330  0.5448  0.5095 -0.2807
   66SOL     OW  261   0.313   0.594   0.523  0.2694 -0.7987 -0.2071
   66SOL    HW1  262   0.389   0.585   0.473 -1.2801  3.4286 -0.2510
   66SOL    HW2  263   0.296   0.688   0.521 -0.0912 -2.2840 -0.6303
   66SOL     MW  264   0.321   0.605   0.516  0.0174 -0.4369 -0.2687
   67SOL     OW  265   1.523   0.190   2.040  0.2925  0.0371  0.2066
   67SOL    HW1  266   1.560   0.248   1.967  0.5319  1.4810 -1.1425
   67SOL    HW2  267   1.478   0.115   1.995 -1.4571 -2.1064  0.1776
   67SOL     MW  268   1.522   0.188   2.024  0.0932 -0.0552  0.0248
   68SOL     OW  269   0.651   0.073   2.983 -0.5904 -0.3446 -0.5640
   68SOL    HW1  270   0.641   0.063   2.888  1.9283  0.8545  0.2974
   68SOL    HW2  271   0.668   0.168   3.006 -0.6745 -1.9336  0.2144
   68SOL     MW  272   0.652   0.084   2.974 -0.2692 -0.3960 -0.3477
   69SOL     OW  273   1.081   0.183   1.970  0.3547 -0.4136  0.1977
   69SOL    HW1  274   1.151   0.211   2.029  0.3513  1.6429  0.9848
   69SOL    HW2  275   1.070   0.089   1.976  0.4133  1.6820 -1.9548
   69SOL     MW  276   1.088   0.174   1.979  0.3620  0.1343  0.0175
   70SOL     OW  277   0.570   1.818   1.136  0.2405  0.4347 -0.3762
   70SOL    HW1  278   0.575   1.723   1.142  0.2731 -0.6566  0.6330
   70SOL    HW2  279   0.656   1.841   1.089 -1.7249 -1.8017 -0.3185
   70SOL     MW  280   0.582   1.808   1.130 -0.0145 -0.0043 -0.2354
   71SOL     OW  281   1.765   0.702   1.245 -0.1804  0.0552 -0.5396
   71SOL    HW1  282   1.737   0.698   1.337  0.3096  0.3046  0.7694
   71SOL    HW2  283   1.691   0.661   1.200 -1.3020 -2.9348 -0.8182
   71SOL     MW  284   1.751   0.696   1.251 -0.2637 -0.3064 -0.4036
   72SOL     OW  285   0.821   1.826   0.994  0.3406  0.2778 -0.0877
   72SOL    HW1  286   0.820   1.880   0.917 -1.4259 -0.7059 -1.4543
   72SOL    HW2  287   0.854   1.736   0.976 -0.0722 -1.2028  0.6511
   72SOL     MW  288   0.825   1.821   0.982  0.0530 -0.0474 -0.1705
   73SOL     OW  289   1.286   0.673   1.348 -0.0379 -0.2543  0.4711
   73SOL    HW1  290   1.259   0.582   1.352  2.1774 -0.1529  0.4366
   73SOL    HW2  291   1.202   0.719   1.363  1.0206 -1.0751  1.0362
   73SOL     MW  292   1.271   0.667   1.350  0.3941 -0.3492  0.5411
   74SOL     OW  293   2.753   0.113   1.006  0.0099  0.2376  0.2378
   74SOL    HW1  294   2.764   0.022   0.991 -0.9145  0.7670 -0.2608
   74SOL    HW2  295   2.814   0.161   0.946  1.8613  1.5807  0.9572
   74SOL     MW  296   2.763   0.108   0.996  0.1322  0.4846  0.2669
   75SOL     OW  297   1.648   1.297   0.086 -0.5145  0.6015 -0.1184
   75SOL    HW1  298   1.680   1.278   0.176 -1.5384  0.0569  0.5445
   75SOL    HW2  299   1.657   1.213   0.049  0.7529  2.1871 -0.4383
   75SOL     MW  300   1.653   1.283   0.093 -0.4824  0.7389 -0.0732
   76SOL     OW  301   2.925   0.663   0.487 -0.5274  0.3269 -0.3432
   76SOL    HW1  302   2.952   0.683   0.577  1.8124  2.1743 -0.5893
   76SOL    HW2  303   3.009   0.636   0.440 -0.2792 -2.0279 -0.1608
   76SOL     MW  304   2.940   0.662   0.493 -0.1859  0.2600 -0.3516
   77SOL     OW  305   0.894   0.410   0.525 -0.0279 -0.1686 -0.1979
   77SOL    HW1  306   0.832   0.476   0.545  0.6214 -0.7864 -0.6639
   77SOL    HW2  307   0.828   0.336   0.511 -0.1655  0.1697  0.9697
   77SOL     MW  308   0.877   0.409   0.526  0.0396 -0.2055 -0.1053
   78SOL     OW  309   0.833   0.767   1.204 -0.3375  0.2032 -0.2528
   78SOL    HW1  310   0.749   0.762   1.152  0.7026  0.3161 -1.4953
   78SOL    HW2  311   0.872   0.849   1.174 -0.2958  0.5484  0.5970
   78SOL     MW  312   0.827   0.777   1.193 -0.1947  0.2637 -0.3046
   79SOL     OW  313   1.835   1.658   0.597 -0.1936 -0.2314  0.0003
   79SOL    HW1  314   1.790   1.585   0.559  0.4035 -0.1676 -0.4961
   79SOL    HW2  315   1.862   1.639   0.685  2.3452  0.3005 -2.0045
   79SOL     MW  316   1.832   1.645   0.604  0.2202 -0.1528 -0.3297
   80SOL     OW  317   0.159   0.987   0.288  0.3178 -0.2584  0.4580
   80SOL    HW1  318   0.062   0.970   0.310  0.2717  0.8185  1.9412
   80SOL    HW2  319   0.217   0.928   0.339 -0.8772  0.0286 -0.4228
   80SOL     MW  320   0.154   0.977   0.297  0.1541 -0.0784  0.5375
   81SOL     OW  321   1.932   1.888   0.242 -0.4422  0.2781 -0.7776
   81SOL    HW1  322   1.850   1.835   0.223 -3.7462  0.7617  2.2078
   81SOL    HW2  323   1.905   1.973   0.216 -1.1337 -0.7569  1.7380
   81SOL     MW  324   1.918   1.892   0.236 -0.9694  0.2054 -0.0518
   82SOL     OW  325   0.815   0.957   0.561  0.5259  0.7331 -0.0260
   82SOL    HW1  326   0.881   0.934   0.497 -1.1511  2.8996 -0.0594
   82SOL    HW2  327   0.773   0.876   0.577  0.7959  0.0309  2.5353
   82SOL     MW  328   0.818   0.943   0.554  0.3403  0.9263  0.3076
   83SOL     OW  329   0.072   0.635   1.390 -0.1583 -0.3565  0.2574
   83SOL    HW1  330   0.107   0.707   1.328  3.1077  0.6329  0.9621
   83SOL    HW2  331   0.150   0.589   1.417  1.1216  2.7617 -2.4666
   83SOL     MW  332   0.087   0.639   1.385  0.4414  0.1854 -0.0090
   84SOL     OW  333   0.055   0.306   1.057  0.5111 -0.4316 -0.5055
   84SOL    HW1  334  -0.020   0.310   0.995  1.1408  0.4414 -1.1623
   84SOL    HW2  335   0.058   0.214   1.088  1.3619 -1.0604  1.6063
   84SOL     MW  336   0.046   0.295   1.053  0.7065 -0.3994 -0.3135
   85SOL     OW  337   0.406   0.426   0.743 -0.0346  0.2532  0.0749
   85SOL    HW1  338   0.354   0.464   0.667  1.1744 -0.7901  2.9950
   85SOL    HW2  339   0.362   0.341   0.756  0.5761 -0.5858  1.8177
   85SOL     MW  340   0.393   0.420   0.735  0.2055  0.0049  0.6901
   86SOL     OW  341   1.178   0.433   1.137  0.5205 -0.3222 -0.2253
   86SOL    HW1  342   1.128   0.502   1.087 -1.0604  2.8434 -1.7621
   86SOL    HW2  343   1.160   0.444   1.230  0.6580  1.3392  0.9286
   86SOL     MW  344   1.169   0.443   1.143  0.3300  0.3147 -0.2759
   87SOL     OW  345   1.229   1.458   1.302 -0.7538 -0.1487 -0.2348
   87SOL    HW1  346   1.250   1.500   1.222 -1.1514  0.6556  0.4374
   87SOL    HW2  347   1.206   1.372   1.275  0.0635  0.8792 -1.4189
   87SOL     MW  348   1.229   1.452   1.288 -0.6984  0.0930 -0.3023
   88SOL     OW  349   1.374   1.013   1.013 -0.4956  0.0298 -0.4279
   88SOL    HW1  350   1.466   1.027   1.018 -1.3613 -3.2518 -0.6884
   88SOL    HW2  351   1.333   1.079   1.072 -0.2923  0.5082  0.0016
   88SOL     MW  352   1.381   1.024   1.021 -0.5830 -0.3400 -0.4056
   89SOL     OW  353   1.762   0.576   0.286 -0.6615 -0.0336  0.6093
   89SOL    HW1  354   1.820   0.504   0.313 -1.5827  2.0963  0.4517
   89SOL    HW2  355   1.829   0.636   0.247  0.1326  3.1409  2.6882
   89SOL     MW  356   1.779   0.574   0.285 -0.6783  0.6663  0.8628
   90SOL     OW  357   0.676   1.218   2.801 -0.4409 -0.6458 -0.4010
   90SOL    HW1  358   0.757   1.186   2.767  1.0240 -0.0608 -0.1055
   90SOL    HW2  359   0.687   1.231   2.892 -1.4470  1.8346 -2.8314
   90SOL     MW  360   0.688   1.216   2.808 -0.3804 -0.2414 -0.6826
   91SOL     OW  361   2.055   0.715   0.489  0.3433 -0.5722  0.4482
   91SOL    HW1  362   2.031   0.798   0.454 -0.1161 -2.1809  0.4697
   91SOL    HW2  363   2.008   0.651   0.443  1.4817  2.0393 -3.9537
   91SOL     MW  364   2.046   0.717   0.479  0.4329 -0.4399 -0.1298
   92SOL     OW  365   1.619   0.798   0.459 -0.7866  0.4109 -0.0816
   92SOL    HW1  366   1.528   0.773   0.486 -1.7625 -1.3818  1.9635
   92SOL    HW2  367   1.655   0.718   0.416  1.1924  1.8251  1.3533
   92SOL     MW  368   1.612   0.785   0.457 -0.6542  0.3610  0.3775
   93SOL     OW  369   1.054   0.244   0.327  0.5825  0.4119 -0.3727
   93SOL    HW1  370   0.993   0.309   0.361 -1.4355 -1.4374 -1.1341
   93SOL    HW2  371   1.088   0.285   0.247  0.3747 -1.3861  0.6551
   93SOL     MW  372   1.050   0.258   0.321  0.2888 -0.0694 -0.3375
   94SOL     OW  373   1.939   1.274   1.649 -0.4246  0.5926 -0.5734
   94SOL    HW1  374   1.934   1.310   1.560  4.4945 -0.4819 -0.0350
   94SOL    HW2  375   1.888   1.191   1.645 -0.4643  3.3106  0.4065
   94SOL     MW  376   1.931   1.268   1.637  0.2192  0.8094 -0.3731
   95SOL     OW  377   0.893   1.540   0.979 -1.0879 -0.1310 -0.1692
   95SOL    HW1  378   0.949   1.474   1.016  0.6240 -3.2219 -1.8822
   95SOL    HW2  379   0.806   1.525   1.014  2.0243  0.4011 -0.5224
   95SOL     MW  380   0.889   1.529   0.988 -0.4514 -0.4686 -0.4418
   96SOL     OW  381   1.264   1.795   1.593 -0.3157  0.6476 -0.6115
   96SOL    HW1  382   1.192   1.755   1.649 -1.5043 -3.8540 -0.7431
   96SOL    HW2  383   1.320   1.723   1.559 -0.9214  1.9173  1.1278
   96SOL     MW  384   1.262   1.780   1.596 -0.5525  0.2212 -0.3994
   97SOL     OW  385   1.261   1.444   0.841  0.1272 -0.6039  0.2925
   97SOL    HW1  386   1.270   1.482   0.929 -2.1196 -1.3409 -2.7832
   97SOL    HW2  387   1.183   1.488   0.805 -0.0970 -0.6322  1.3152
   97SOL     MW  388   1.252   1.455   0.848 -0.1988 -0.7048  0.0216
   98SOL     OW  389   1.504   1.308   1.184 -0.0113  0.4290 -0.0841
   98SOL    HW1  390   1.529   1.392   1.222 -0.4096  1.0920  1.0332
   98SOL    HW2  391   1.527   1.313   1.090 -2.7087 -0.0163 -0.9947
   98SOL     MW  392   1.510   1.319   1.177 -0.4198  0.4577 -0.0569
   99SOL     OW  393   1.522   0.300   1.274 -0.1984  0.1960  0.4068
   99SOL    HW1  394   1.518   0.389   1.261 -0.2305 -3.2051  0.1461
   99SOL    HW2  395   1.523   0.294   1.367 -0.8180 -1.5201  2.3260
   99SOL     MW  396   1.521   0.311   1.284 -0.2844 -0.4792  0.6256
  100SOL     OW  397   1.109   1.065   1.331 -0.5071  0.3914 -0.1009
  100SOL    HW1  398   1.043   1.098   1.394 -0.8338 -0.3333 -0.1624
  100SOL    HW2  399   1.121   0.972   1.362  0.2056  0.7143 -2.3320
  100SOL     MW  400   1.102   1.057   1.343 -0.4562  0.3384 -0.4034
  101SOL     OW  401   0.609   1.178   0.325  0.0102 -0.1731 -0.1000
  101SOL    HW1  402   0.597   1.079   0.334 -0.4601 -0.4885 -0.2170
  101SOL    HW2  403   0.581   1.199   0.235 -1.9651  0.2577 -1.0331
  101SOL     MW  404   0.603   1.168   0.314 -0.3125 -0.1579 -0.2386
  102SOL     OW  405   2.955   0.584   0.978 -0.2819 -0.0287 -0.0344
  102SOL    HW1  406   3.021   0.651   0.959  1.0636  3.8521 -0.6093
  102SOL    HW2  407   2.964   0.567   1.076 -0.7194  1.5369 -1.5086
  102SOL     MW  408   2.965   0.591   0.988 -0.1621  0.6899 -0.3047
  103SOL     OW  409   1.599   0.364   1.823 -0.2576 -0.3659  1.1095
  103SOL    HW1  410   1.618   0.307   1.745  2.3118 -0.9705 -2.3889
  103SOL    HW2  411   1.690   0.368   1.848 -1.1618  3.8963 -0.0257
  103SOL     MW  412   1.614   0.357   1.816 -0.0379  0.1167  0.4982
  104SOL     OW  413   0.112   1.832   1.446 -0.2153  0.2724 -0.7332
  104SOL    HW1  414   0.202   1.793   1.438  0.3931  1.6423 -1.3754
  104SOL    HW2  415   0.040   1.765   1.473  0.2477 -0.5480 -3.9328
  104SOL     MW  416   0.115   1.818   1.449 -0.0739  0.3449 -1.2401
  105SOL     OW  417   0.151   1.144   0.517  0.4028 -0.5485  0.7005
  105SOL    HW1  418   0.157   1.080   0.440 -1.7990 -2.1703  1.4400
  105SOL    HW2  419   0.218   1.211   0.512 -0.2634 -0.3878 -0.1200
  105SOL     MW  420   0.161   1.145   0.507  0.0244 -0.7413  0.6898
  106SOL     OW  421   0.844   0.308   0.943 -0.6571  0.0849 -0.0482
  106SOL    HW1  422   0.785   0.368   0.900 -1.7214 -0.8085  0.6427
  106SOL    HW2  423   0.930   0.337   0.903 -0.1068 -0.7347 -1.1650
  106SOL     MW  424   0.848   0.320   0.932 -0.7249 -0.1411 -0.1044
  107SOL     OW  425   0.796   2.219   3.048  0.1851 -0.4251 -0.5108
  107SOL    HW1  426   0.768   2.135   3.017  0.2759 -0.7405  1.1853
  107SOL    HW2  427   0.888   2.192   3.063 -1.2577 -1.7846  2.2829
  107SOL     MW  428   0.805   2.205   3.046  0.0067 -0.6461  0.0816
  108SOL     OW  429   1.405   1.590   1.494 -0.0613 -0.0805 -1.0676
  108SOL    HW1  430   1.364   1.513   1.450 -1.6290 -1.0433  1.9003
  108SOL    HW2  431   1.467   1.551   1.559  4.7297 -1.1626 -0.0944
  108SOL     MW  432   1.408   1.575   1.497  0.3640 -0.3503 -0.5476
  109SOL     OW  433   1.954   0.742   0.185  0.1352  0.7678  1.0831
  109SOL    HW1  434   1.993   0.742   0.097  3.8232 -0.9125 -1.2273
  109SOL    HW2  435   2.021   0.790   0.230  0.8960 -0.7531  1.2684
  109SOL     MW  436   1.968   0.748   0.179  0.7221  0.3454  0.8027
  110SOL     OW  437   0.392   1.792   0.711 -0.0286  0.1935 -0.2538
  110SOL    HW1  438   0.467   1.741   0.685  0.8708  0.3438 -0.6019
  110SOL    HW2  439   0.384   1.864   0.652  0.5973  0.1471  2.0356
  110SOL     MW  440   0.401   1.795   0.700  0.1727  0.2072  0.0024
  111SOL     OW  441   0.727   0.908   1.500  0.3335 -0.5723 -0.3950
  111SOL    HW1  442   0.769   0.822   1.485  0.2452  0.8277 -1.2904
  111SOL    HW2  443   0.642   0.881   1.532 -0.7489  1.2522  2.0450
  111SOL     MW  444   0.721   0.893   1.502  0.1790 -0.1468 -0.1912
  112SOL     OW  445   1.301   1.104   1.622  0.2718  0.0055  0.2671
  112SOL    HW1  446   1.225   1.167   1.649  0.8197  1.3757  1.0968
  112SOL    HW2  447   1.269   1.012   1.619 -1.8146 -2.4381 -0.7332
  112SOL     MW  448   1.287   1.100   1.626  0.0688 -0.1361  0.2446
  113SOL     OW  449   1.371   0.088   1.691 -0.3594 -0.1382 -0.2955
  113SOL    HW1  450   1.358   0.045   1.778 -0.5815  1.6313 -1.5769
  113SOL    HW2  451   1.369   0.014   1.630 -0.1233  1.6996  3.8709
  113SOL     MW  452   1.369   0.072   1.694 -0.3576  0.3378  0.0851
  114SOL     OW  453   0.440   2.813   1.858 -0.1167 -0.2082 -0.1315
  114SOL    HW1  454   0.442   2.869   1.936  1.6772  0.7140 -0.3387
  114SOL    HW2  455   0.429   2.867   1.783 -0.7780 -0.0735 -1.3217
  114SOL     MW  456   0.439   2.827   1.859  0.0328 -0.0687 -0.3159
  115SOL     OW  457   0.439   0.848   1.093  0.6139 -0.0216 -0.0040
  115SOL    HW1  458   0.479   0.762   1.098  0.3868  0.9839 -1.9060
  115SOL    HW2  459   0.407   0.872   1.180  2.4145  0.7103  0.1342
  115SOL     MW  460   0.440   0.840   1.105  0.8215  0.2077 -0.2367
  116SOL     OW  461   0.784   1.007   0.911 -0.8606  0.1375  0.2925
  116SOL    HW1  462   0.839   1.064   0.853 -0.5239 -1.3466 -0.0108
  116SOL    HW2  463   0.838   1.007   0.989 -2.3432  0.5724  3.1241
  116SOL     MW  464   0.798   1.015   0.914 -1.0118 -0.0009  0.6261
  117SOL     OW  465   1.195   1.118   0.783 -0.1991  0.3033  0.0133
  117SOL    HW1  466   1.233   1.076   0.860 -0.0330  1.5874 -5.4152
  117SOL    HW2  467   1.212   1.208   0.804  0.2816 -1.9379  0.3814
  117SOL     MW  468   1.202   1.124   0.796 -0.1138  0.1771 -0.6543
  118SOL     OW  469   3.088   2.958   1.713  0.1513 -0.3270  0.2212
  118SOL    HW1  470   3.136   3.003   1.790 -0.2207 -0.1515 -0.1042
  118SOL    HW2  471   2.991   2.982   1.709  0.9256  0.2203 -0.4571
  118SOL     MW  472   3.081   2.967   1.722  0.2044 -0.2316  0.0888
  119SOL     OW  473   0.543   1.310   1.211  0.4001  0.4517 -0.5668
  119SOL    HW1  474   0.529   1.342   1.118  2.0504  0.2267  0.8348
  119SOL    HW2  475   0.457   1.274   1.231  3.2621 -0.3991  0.6868
  119SOL     MW  476   0.530   1.309   1.201  0.9955  0.3097 -0.2165
  120SOL     OW  477   0.211   0.651   0.936  0.2234  0.6153 -0.2047
  120SOL    HW1  478   0.267   0.594   0.993  0.6558  0.1226  2.3832
  120SOL    HW2  479   0.248   0.737   0.946  0.4590  2.5196 -2.7105
  120SOL     MW  480   0.223   0.654   0.945  0.3115  0.8016 -0.1938
  121SOL     OW  481   1.773   1.038   1.722  0.6055 -0.4302 -0.3900
  121SOL    HW1  482   1.693   1.017   1.673  1.1103  0.2881  3.7045
  121SOL    HW2  483   1.819   0.962   1.688 -0.9644  1.4240  1.1146
  121SOL     MW  484   1.768   1.026   1.711  0.4650 -0.0908  0.3488
  122SOL     OW  485   0.100   0.517   0.717  0.3656 -0.1858  0.2663
  122SOL    HW1  486   0.143   0.570   0.652 -1.8620  1.4378  0.0530
  122SOL    HW2  487   0.145   0.543   0.799  0.3380 -0.0431  1.0307
  122SOL     MW  488   0.111   0.528   0.719  0.0680  0.0472  0.3390
  123SOL     OW  489   1.799   1.017   0.467  0.0062 -0.0102 -0.1585
  123SOL    HW1  490   1.762   0.933   0.444 -0.2719  0.9089 -0.0372
  123SOL    HW2  491   1.790   1.030   0.563  0.1726  0.9565  1.7178
  123SOL     MW  492   1.793   1.008   0.477 -0.0086  0.2386  0.1051
  124SOL     OW  493   0.667   0.502   0.818  0.2078 -0.0616  0.0399
  124SOL    HW1  494   0.594   0.454   0.779 -0.2522  1.5300  0.9944
  124SOL    HW2  495   0.663   0.597   0.799  0.1493 -1.9269  0.9017
  124SOL     MW  496   0.657   0.508   0.810  0.1394 -0.0977  0.2795
  125SOL     OW  497   0.699   1.670   1.654 -0.0884 -0.4417 -0.7631
  125SOL    HW1  498   0.626   1.620   1.615  2.9121  1.1855  2.2361
  125SOL    HW2  499   0.661   1.750   1.689  0.3533  0.8554  0.0958
  125SOL     MW  500   0.685   1.674   1.654  0.3658 -0.0558 -0.2541
  126SOL     OW  501   2.125   1.615   1.970  0.1870 -0.0805 -1.1194
  126SOL    HW1  502   2.177   1.697   1.949  0.9017  0.5512 -0.2562
  126SOL    HW2  503   2.191   1.548   1.983 -0.6888  2.4141 -1.2194
  126SOL     MW  504   2.141   1.617   1.969  0.1657  0.3320 -1.0187
  127SOL     OW  505   0.602   0.733   1.901 -0.2093 -0.3064 -0.0237
  127SOL    HW1  506   0.675   0.686   1.938  2.0045 -1.4913  0.2082
  127SOL    HW2  507   0.616   0.826   1.931  2.5959  2.5624 -0.1693
  127SOL     MW  508   0.613   0.739   1.910  0.4529 -0.0842 -0.0123
  128SOL     OW  509   1.747   0.747   2.875  0.1195 -0.2747  0.5000
  128SOL    HW1  510   1.786   0.715   2.793 -2.5141  3.3017 -0.4365
  128SOL    HW2  511   1.740   0.842   2.862 -0.5481 -1.2545  1.1235
  128SOL     MW  512   1.752   0.755   2.863 -0.3160  0.0679  0.4587
  129SOL     OW  513   1.479   0.957   0.201  0.0694  0.2347 -0.0430
  129SOL    HW1  514   1.448   0.884   0.145 -1.8535  1.0873 -0.1994
  129SOL    HW2  515   1.487   0.937   0.292 -1.7463 -1.8787 -0.4514
  129SOL     MW  516   1.476   0.945   0.206 -0.4239  0.0684 -0.1175
  130SOL     OW  517   0.757   1.499   0.357 -0.1176 -0.0762 -0.2658
  130SOL    HW1  518   0.782   1.437   0.423 -1.7093 -1.3834  2.8714
  130SOL    HW2  519   0.843   1.520   0.304  1.5043 -1.5179 -0.1364
  130SOL     MW  520   0.772   1.493   0.359 -0.1136 -0.4389  0.1652
  131SOL     OW  521   3.038   0.789   0.059 -0.4345 -0.7384 -0.1080
  131SOL    HW1  522   3.042   0.858  -0.019  0.2445  2.9111  1.4545
  131SOL    HW2  523   3.133   0.791   0.086  3.0373 -1.9745  1.7689
  131SOL     MW  524   3.051   0.799   0.052  0.1131 -0.4200  0.3458
  132SOL     OW  525   2.710   0.171   1.270  0.7360  0.0735  0.1341
  132SOL    HW1  526   2.729   0.163   1.174  0.2283 -1.3116 -0.5858
  132SOL    HW2  527   2.622   0.126   1.275  0.9378 -0.4854  1.6630
  132SOL     MW  528   2.701   0.164   1.258  0.6956 -0.1830  0.2408
  133SOL     OW  529   1.115   0.217   1.703  0.3250 -0.2964 -0.6083
  133SOL    HW1  530   1.194   0.173   1.674  0.9976  0.2713  1.3577
  133SOL    HW2  531   1.125   0.213   1.799 -1.0206 -2.3821  0.0540
  133SOL     MW  532   1.127   0.211   1.711  0.2362 -0.4967 -0.2615
  134SOL     OW  533   1.351   2.500   1.413 -0.0808  0.2356 -0.1865
  134SOL    HW1  534   1.294   2.571   1.405  1.7443 -1.5008 -1.5781
  134SOL    HW2  535   1.395   2.508   1.499 -4.5611  1.1718 -1.7103
  134SOL     MW  536   1.349   2.510   1.423 -0.4311  0.1300 -0.5712
  135SOL     OW  537   3.047   0.974   2.952 -0.2408 -0.4213  0.6179
  135SOL    HW1  538   3.093   1.065   2.941 -1.2646  2.1087  1.8506
  135SOL    HW2  539   2.954   1.014   2.971 -2.5363  0.1262 -0.0456
  135SOL     MW  540   3.041   0.991   2.953 -0.6788 -0.0152  0.6930
  136SOL     OW  541   0.251   1.999   0.873 -0.2812 -0.5077 -0.4525
  136SOL    HW1  542   0.171   1.943   0.891  1.7603 -2.3077 -4.6296
  136SOL    HW2  543   0.308   1.941   0.816 -0.2092 -3.5660 -3.5451
  136SOL     MW  544   0.248   1.984   0.868 -0.0024 -1.1487 -1.4116
  137SOL     OW  545   0.659   2.001   0.571  0.5937 -0.4123 -0.4060
  137SOL    HW1  546   0.709   2.018   0.650 -1.5574 -2.3310  1.3275
  137SOL    HW2  547   0.563   2.008   0.596 -0.8122  2.2913  0.8932
  137SOL     MW  548   0.653   2.004   0.585  0.1244 -0.3087 -0.0058
  138SOL     OW  549   0.548   0.602   1.055 -0.5705 -0.3275 -0.1405
  138SOL    HW1  550   0.467   0.556   1.057  1.3000  1.9069  1.4180
  138SOL    HW2  551   0.588   0.572   0.976  2.2220  1.4728  1.2810
  138SOL     MW  552   0.543   0.592   1.045  0.0447  0.2049  0.2527
  139SOL     OW  553   2.761   0.524   1.412 -0.1936  0.1892  0.3228
  139SOL    HW1  554   2.805   0.443   1.396 -2.2725 -0.3577 -3.0955
  139SOL    HW2  555   2.840   0.582   1.442  0.0122  0.7125 -0.8050
  139SOL     MW  556   2.777   0.521   1.414 -0.4407  0.1861 -0.2770
  140SOL     OW  557   0.864   0.311   2.130 -0.1308  0.2627  0.2058
  140SOL    HW1  558   0.902   0.279   2.048 -0.4437  2.2128 -0.1601
  140SOL    HW2  559   0.928   0.286   2.207  1.1013 -3.2060  5.2097
  140SOL     MW  560   0.878   0.303   2.129 -0.0095  0.0623  0.8178
  141SOL     OW  561   1.015   0.609   1.764 -0.1230 -0.3416 -0.0130
  141SOL    HW1  562   1.078   0.539   1.729  0.5403  2.0085 -0.5621
  141SOL    HW2  563   1.079   0.678   1.766  0.1635 -3.2298 -1.5230
  141SOL     MW  564   1.031   0.609   1.760  0.0023 -0.4126 -0.2847
  142SOL     OW  565   0.928   1.146   0.721 -0.1122 -0.4885  0.3134
  142SOL    HW1  566   0.907   1.072   0.667  2.1262 -0.0903  0.3192
  142SOL    HW2  567   1.022   1.121   0.751 -0.0664  0.8873 -3.8611
  142SOL     MW  568   0.938   1.133   0.718  0.1891 -0.2544 -0.2366
  143SOL     OW  569   1.880   0.924   1.122  0.2053 -0.0115 -0.1363
  143SOL    HW1  570   1.890   0.891   1.034 -0.6186 -0.7762 -0.1135
  143SOL    HW2  571   1.837   0.852   1.168 -0.4332 -0.4843 -0.0348
  143SOL     MW  572   1.876   0.910   1.117  0.0123 -0.1748 -0.1199
  144SOL     OW  573   0.140   1.167   1.555 -0.1463  0.0835 -0.2617
  144SOL    HW1  574   0.234   1.152   1.544  0.1273  1.9888  1.3777
  144SOL    HW2  575   0.134   1.195   1.647 -1.1551  1.5766 -0.1443
  144SOL     MW  576   0.152   1.169   1.566 -0.2433  0.5319 -0.0299
  145SOL     OW  577   0.275   0.454   1.144  0.4857 -0.1979 -0.1917
  145SOL    HW1  578   0.300   0.407   1.220  0.6484  1.5861  0.4232
  145SOL    HW2  579   0.199   0.412   1.108 -2.4030  0.2494 -2.1598
  145SOL     MW  580   0.268   0.442   1.150  0.1260  0.0965 -0.3703
  146SOL     OW  581   0.888   1.904   1.398  0.3037  0.0689  0.4771
  146SOL    HW1  582   0.938   1.918   1.306  2.2818 -0.4485  0.2247
  146SOL    HW2  583   0.796   1.919   1.374  1.1032 -0.3755 -0.5685
  146SOL     MW  584   0.882   1.907   1.383  0.6701 -0.0580  0.3058
  147SOL     OW  585   0.407   0.439   2.854 -0.1528  0.5034  0.0442
  147SOL    HW1  586   0.386   0.448   2.943  0.6459 -0.0386 -3.4237
  147SOL    HW2  587   0.354   0.502   2.811 -1.4869  0.1850  0.7581
  147SOL     MW  588   0.397   0.448   2.860 -0.2234  0.3898 -0.3191
  148SOL     OW  589   0.031   0.928   1.293  0.4164  0.4270  0.1212
  148SOL    HW1  590   0.125   0.917   1.293 -0.8728 -2.1657  0.7866
  148SOL    HW2  591   0.002   0.931   1.381  0.0587  3.2224  2.0027
  148SOL     MW  592   0.039   0.927   1.304  0.1991  0.4537  0.4573
  149SOL     OW  593   1.425   1.121   1.371 -0.4914  0.2077  0.3436
  149SOL    HW1  594   1.384   1.126   1.463 -1.1626 -0.2701 -0.2545
  149SOL    HW2  595   1.504   1.174   1.378 -0.3735  1.8936  0.7335
  149SOL     MW  596   1.430   1.128   1.384 -0.5644  0.3671  0.3161
  150SOL     OW  597   1.825   1.348   0.739 -0.1025 -0.2591  0.3828
  150SOL    HW1  598   1.851   1.263   0.703  0.8196  0.0700 -0.6368
  150SOL    HW2  599   1.894   1.377   0.794  0.6322  0.5977 -0.4062
  150SOL     MW  600   1.837   1.341   0.742  0.1161 -0.1026  0.1442
  151SOL     OW  601   1.610   1.787   0.829  0.4426  0.2275  0.3888
  151SOL    HW1  602   1.557   1.779   0.752 -2.2876 -1.3436  3.0406
  151SOL    HW2  603   1.575   1.715   0.880  2.8452 -0.3484  1.2049
  151SOL     MW  604   1.598   1.776   0.826  0.3994 -0.0558  0.8464
  152SOL     OW  605   0.763   1.329   1.544  0.0737  0.2236  0.2451
  152SOL    HW1  606   0.795   1.245   1.563  0.7962  2.1186  0.1478
  152SOL    HW2  607   0.846   1.369   1.510  2.5382  0.6846 -1.1685
  152SOL     MW  608   0.778   1.323   1.542  0.4942  0.5345  0.0458
  153SOL     OW  609   2.664   1.224   0.693 -0.0180 -0.1883 -0.4906
  153SOL    HW1  610   2.715   1.204   0.616 -0.5761  0.7659  1.9059
  153SOL    HW2  611   2.606   1.150   0.704  0.7027  3.7844 -0.9694
  153SOL     MW  612   2.663   1.211   0.684  0.0034  0.4618 -0.2376
  154SOL     OW  613   0.322   1.773   1.712 -0.1165  0.1976 -0.4472
  154SOL    HW1  614   0.312   1.735   1.628  3.4977  1.1606  2.7225
  154SOL    HW2  615   0.351   1.702   1.772 -0.3417  0.3112 -0.1382
  154SOL     MW  616   0.324   1.758   1.709  0.3306  0.3396  0.0118
  155SOL     OW  617   1.103   0.736   0.250  0.1382 -0.3429  0.3998
  155SOL    HW1  618   1.110   0.678   0.330 -0.0590  0.1269  1.1570
  155SOL    HW2  619   1.068   0.822   0.280 -1.0037 -0.7474  2.0161
  155SOL     MW  620   1.099   0.740   0.265 -0.0385 -0.3343  0.7129
  156SOL     OW  621   1.535   3.082   1.028 -1.0604 -0.5554  0.2597
  156SOL    HW1  622   1.600   3.152   1.008  1.2025  0.3410 -0.2780
  156SOL    HW2  623   1.564   3.041   1.108 -0.0966 -1.2122 -1.0421
  156SOL     MW  624   1.547   3.086   1.036 -0.6347 -0.5238  0.0170
  157SOL     OW  625   1.402   1.198   0.126 -0.7017  0.7105 -0.0149
  157SOL    HW1  626   1.437   1.109   0.146  1.5400 -2.0388 -0.4720
  157SOL    HW2  627   1.485   1.245   0.103  0.2776 -0.6513 -0.4078
  157SOL     MW  628   1.418   1.193   0.126 -0.2767  0.1681 -0.1270
  158SOL     OW  629   0.400   1.650   2.294 -0.6774 -0.4751 -0.5292
  158SOL    HW1  630   0.353   1.695   2.226  0.1306  2.8870 -0.2724
  158SOL    HW2  631   0.317   1.617   2.340 -0.3502  2.2400  3.4560
  158SOL     MW  632   0.383   1.651   2.291 -0.5276  0.3268  0.0305
  159SOL     OW  633   1.297   1.659   0.436  0.1742 -0.3927 -0.1149
  159SOL    HW1  634   1.274   1.592   0.377  2.8041  0.0923  2.2085
  159SOL    HW2  635   1.212   1.679   0.479 -0.8525 -0.1095  0.1237
  159SOL     MW  636   1.282   1.653   0.434  0.3857 -0.2913  0.2231
  160SOL     OW  637   0.438   1.070   1.554  0.4858  0.1413 -0.3094
  160SOL    HW1  638   0.457   0.992   1.607 -1.0906  1.4404 -0.6467
  160SOL    HW2  639   0.457   1.146   1.610 -0.4193  0.4859 -1.1025
  160SOL     MW  640   0.443   1.070   1.568  0.1584  0.3582 -0.4586
  161SOL     OW  641   0.598   2.115   2.701 -0.1766 -0.0599 -0.1304
  161SOL    HW1  642   0.532   2.142   2.764  0.6412 -0.1926  1.6288
  161SOL    HW2  643   0.547   2.076   2.627  2.5621  1.5811  0.3691
  161SOL     MW  644   0.583   2.114   2.700  0.2926  0.1391  0.1676
  162SOL     OW  645   1.035   1.715   1.830  0.2308 -0.0348 -0.0495
  162SOL    HW1  646   1.064   1.813   1.836  1.6491 -1.8714 -5.2722
  162SOL    HW2  647   0.935   1.720   1.827 -1.9646 -0.3498 -1.6295
  162SOL     MW  648   1.026   1.729   1.830  0.1283 -0.3187 -0.9471
  163SOL     OW  649   2.137   0.143   0.985 -0.4219  0.3452 -0.1634
  163SOL    HW1  650   2.137   0.167   0.889  2.4549  0.8856  1.7255
  163SOL    HW2  651   2.096   0.058   0.995  0.0643  0.7279 -0.8243
  163SOL     MW  652   2.131   0.135   0.974  0.0218  0.4670 -0.0014
  164SOL     OW  653   0.266   0.195   0.820 -0.8896  0.1719 -0.1996
  164SOL    HW1  654   0.209   0.238   0.881  1.0313 -0.2463 -2.7950
  164SOL    HW2  655   0.229   0.106   0.808 -0.7067 -0.3263  0.4609
  164SOL     MW  656   0.253   0.189   0.826 -0.6120  0.0510 -0.4549
  165SOL     OW  657   1.373   1.220   0.420 -0.0626 -0.1529 -0.2224
  165SOL    HW1  658   1.354   1.142   0.471 -2.7232  0.4350 -1.7496
  165SOL    HW2  659   1.367   1.200   0.327  2.8970  1.6782  0.8616
  165SOL     MW  660   1.370   1.207   0.415 -0.0232  0.1663 -0.2808
  166SOL     OW  661   0.527   1.086   0.966 -0.0309 -0.2317  0.0177
  166SOL    HW1  662   0.513   1.005   1.021  2.0216 -0.9841 -0.9476
  166SOL    HW2  663   0.613   1.073   0.918 -1.5363 -3.2368  1.5083
  166SOL     MW  664   0.537   1.074   0.967  0.0413 -0.7275  0.0870
  167SOL     OW  665   0.923   1.153   0.273 -0.4438 -0.0631 -0.5633
  167SOL    HW1  666   0.830   1.184   0.285 -0.5830 -1.1183 -0.4515
  167SOL    HW2  667   0.937   1.152   0.180  2.9846 -0.9846 -0.0420
  167SOL     MW  668   0.913   1.157   0.263 -0.0098 -0.3239 -0.4798
  168SOL     OW  669   1.693   1.762   2.887 -0.0931 -0.0484 -0.1265
  168SOL    HW1  670   1.639   1.821   2.945  0.7474 -1.6022 -0.3679
  168SOL    HW2  671   1.666   1.671   2.915  0.8294 -1.5466  1.3458
  168SOL     MW  672   1.682   1.758   2.899  0.1395 -0.4511  0.0359
  169SOL     OW  673   0.320   0.925   1.322 -0.4480 -0.4106  0.3176
  169SOL    HW1  674   0.350   0.939   1.408  0.8943 -0.7416 -0.3927
  169SOL    HW2  675   0.317   1.019   1.297 -2.4653  1.5986 -0.4595
  169SOL     MW  676   0.324   0.939   1.330 -0.5371 -0.1892  0.1213
  170SOL     OW  677   1.020   1.463   1.497  0.6325 -0.0081 -0.4108
  170SOL    HW1  678   0.965   1.536   1.461 -1.8311 -0.4137 -0.9554
  170SOL    HW2  679   1.094   1.457   1.442 -1.6040 -0.2784  1.0086
  170SOL     MW  680   1.022   1.472   1.485  0.0124 -0.0972 -0.2954
  171SOL     OW  681   0.597   1.400   0.717 -0.0201  0.1790 -0.1815
  171SOL    HW1  682   0.562   1.389   0.807 -1.1696 -2.9280  1.1687
  171SOL    HW2  683   0.571   1.321   0.677  0.7899  0.8422  0.0728
  171SOL     MW  684   0.589   1.388   0.723 -0.0649 -0.1434  0.0302
  172SOL     OW  685   0.836   0.326   1.215 -0.2108 -0.2596 -0.0789
  172SOL    HW1  686   0.826   0.315   1.121 -0.6915  1.1291 -1.1602
  172SOL    HW2  687   0.756   0.363   1.246  3.1648 -1.2738 -0.0669
  172SOL     MW  688   0.824   0.330   1.207  0.1712 -0.2102 -0.2200
  173SOL     OW  689   0.454   1.680   0.325  0.4497 -0.1612 -0.2607
  173SOL    HW1  690   0.448   1.590   0.298  0.8278 -1.8637 -1.2036
  173SOL    HW2  691   0.483   1.681   0.417 -1.8720 -0.6257  0.2414
  173SOL     MW  692   0.457   1.668   0.334  0.1932 -0.4471 -0.3189
  174SOL     OW  693   2.032   0.969   1.530 -0.2268 -0.4038  0.1097
  174SOL    HW1  694   1.964   0.899   1.536 -1.0518 -2.3279 -3.3556
  174SOL    HW2  695   1.991   1.051   1.487  0.6396  0.5791  0.5285
  174SOL     MW  696   2.018   0.971   1.525 -0.2214 -0.5280 -0.2923
  175SOL     OW  697   0.419   1.387   0.362  0.2547  1.0403 -0.0130
  175SOL    HW1  698   0.386   1.370   0.272 -0.0475 -1.8531 -2.2881
  175SOL    HW2  699   0.505   1.335   0.369  0.9725  0.8875 -0.4208
  175SOL     MW  700   0.426   1.378   0.351  0.3095  0.6384 -0.3670
  176SOL     OW  701   0.292   1.221   1.265  0.3863  0.0012 -0.0298
  176SOL    HW1  702   0.266   1.252   1.178 -1.1573 -0.3709 -0.7223
  176SOL    HW2  703   0.250   1.280   1.317 -1.0799  0.9101  0.7594
  176SOL     MW  704   0.283   1.233   1.260 -0.0108  0.0720 -0.0170
  177SOL     OW  705   0.605   0.460   1.320  0.5280  0.0797  0.1813
  177SOL    HW1  706   0.593   0.539   1.274 -2.6939  1.4241 -0.2194
  177SOL    HW2  707   0.606   0.474   1.417 -0.6060  0.0166 -1.2234
  177SOL     MW  708   0.604   0.472   1.327 -0.0467  0.2487 -0.0569
  178SOL     OW  709   3.099   0.444   2.962 -0.1199 -0.1418 -0.2773
  178SOL    HW1  710   3.047   0.468   3.040  0.2981 -0.4219 -2.8206
  178SOL    HW2  711   3.060   0.496   2.887 -0.8233 -0.3591 -1.5753
  178SOL     MW  712   3.087   0.454   2.962 -0.1576 -0.2074 -0.7841
  179SOL     OW  713   1.624   1.329   1.484 -0.2464  0.0692  0.2779
  179SOL    HW1  714   1.606   1.369   1.570 -3.1759  1.2662  2.9099
  179SOL    HW2  715   1.719   1.325   1.481 -0.7589  2.3026  1.4839
  179SOL     MW  716   1.634   1.334   1.495 -0.7005  0.5218  0.7843
  180SOL     OW  717   3.026   0.269   0.484  0.0784  0.1348  0.2324
  180SOL    HW1  718   2.995   0.265   0.387  1.4853 -0.6419 -1.8985
  180SOL    HW2  719   3.102   0.331   0.490  0.1279  0.1574  0.3097
  180SOL     MW  720   3.032   0.276   0.472  0.2705  0.0353 -0.0385
  181SOL     OW  721   1.128   1.413   3.092 -0.0776  0.5128 -0.2735
  181SOL    HW1  722   1.164   1.476   3.155 -1.5001 -1.2263  2.0777
  181SOL    HW2  723   1.197   1.429   3.022  0.4515  0.7280  0.3761
  181SOL     MW  724   1.142   1.423   3.091 -0.1955  0.3117  0.1224
  182SOL     OW  725   0.471   0.801   1.669 -0.0192  0.1254  0.0164
  182SOL    HW1  726   0.382   0.784   1.697  0.7777 -0.2655 -2.9028
  182SOL    HW2  727   0.526   0.759   1.740 -0.4293 -2.7336  0.9109
  182SOL     MW  728   0.467   0.793   1.682  0.0318 -0.3034 -0.2507
  183SOL     OW  729   1.612   1.544   1.298  0.4061 -0.2009 -0.0400
  183SOL    HW1  730   1.545   1.606   1.331 -1.0688  1.1675  3.2414
  183SOL    HW2  731   1.622   1.475   1.368 -0.1189 -1.0142  0.4169
  183SOL     MW  732   1.604   1.543   1.312  0.1423 -0.1276  0.4532
  184SOL     OW  733   0.819   0.567   1.988  0.2962  1.0962 -0.3676
  184SOL    HW1  734   0.893   0.593   1.929  3.3315  1.0199 -1.1350
  184SOL    HW2  735   0.842   0.485   2.043  1.8423 -2.7358  0.2708
  184SOL     MW  736   0.832   0.560   1.988  0.9007  0.5806 -0.3846
  185SOL     OW  737   1.113   0.954   1.950 -0.1380  0.2458 -0.5575
  185SOL    HW1  738   1.099   0.873   2.001 -0.5962  2.9861 -0.6673
  185SOL    HW2  739   1.147   1.019   2.021  0.0432  1.5077  0.8913
  185SOL     MW  740   1.116   0.952   1.966 -0.1745  0.7739 -0.3808
  186SOL     OW  741   0.352   1.708   1.417  0.4466 -0.6354 -0.0336
  186SOL    HW1  742   0.424   1.756   1.384  0.2007 -1.0839 -2.3417
  186SOL    HW2  743   0.328   1.648   1.346  2.3550 -0.3196 -0.8662
  186SOL     MW  744   0.358   1.706   1.403  0.6659 -0.6529 -0.4480
  187SOL     OW  745   1.520   0.663   1.487 -0.8000  0.1409 -0.1250
  187SOL    HW1  746   1.482   0.649   1.573 -0.9387 -1.0773 -1.0370
  187SOL    HW2  747   1.445   0.693   1.434 -1.8437  0.8414  0.2787
  187SOL     MW  748   1.505   0.665   1.491 -0.9560  0.0726 -0.1921
  188SOL     OW  749   1.922   1.093   0.717  0.1903 -0.5478  0.0241
  188SOL    HW1  750   1.888   1.023   0.772 -1.0315 -1.6718  0.5191
  188SOL    HW2  751   2.014   1.079   0.700 -1.3622  1.2227  2.5613
  188SOL     MW  752   1.929   1.082   0.722 -0.1757 -0.4625  0.4242
  189SOL     OW  753   0.647   0.783   0.801  0.6888  0.3541  0.3208
  189SOL    HW1  754   0.570   0.845   0.795 -1.8018 -5.0726 -1.7078
  189SOL    HW2  755   0.724   0.829   0.826  0.1682 -0.8643 -0.1498
  189SOL     MW  756   0.647   0.798   0.804  0.2915 -0.5226 -0.0090
  190SOL     OW  757   1.854   0.379   1.971  0.2704 -0.8322 -0.2123
  190SOL    HW1  758   1.903   0.299   1.957 -2.0371  0.3863  0.1722
  190SOL    HW2  759   1.920   0.447   1.945  1.3974  0.0597  1.7467
  190SOL     MW  760   1.869   0.377   1.966  0.1146 -0.5538  0.0969
  191SOL     OW  761   1.619   0.943   1.522 -0.4751 -0.4903 -0.7822
  191SOL    HW1  762   1.540   0.977   1.473 -1.1251 -1.2707 -2.1380
  191SOL    HW2  763   1.612   0.851   1.495  1.0209  0.7365 -3.1937
  191SOL     MW  764   1.608   0.935   1.512 -0.3635 -0.4314 -1.2793
  192SOL     OW  765   0.740   1.963   2.923  0.2859 -0.4741  0.0052
  192SOL    HW1  766   0.687   2.014   2.860  2.2790  1.7249 -0.5070
  192SOL    HW2  767   0.678   1.901   2.960 -1.3223  1.3972  1.2496
  192SOL     MW  768   0.725   1.962   2.920  0.3367  0.0629  0.1018
  193SOL     OW  769   1.040   1.548   0.750  0.0975  0.3963 -0.2865
  193SOL    HW1  770   0.982   1.564   0.830  0.8227 -1.7532  0.5858
  193SOL    HW2  771   0.991   1.485   0.693 -0.5931 -0.5729 -0.4297
  193SOL     MW  772   1.026   1.542   0.753  0.1020 -0.0152 -0.1903
  194SOL     OW  773   0.462   1.349   0.951 -0.2572 -0.3322  0.1401
  194SOL    HW1  774   0.469   1.251   0.960 -2.9351  0.1616 -1.6994
  194SOL    HW2  775   0.379   1.366   0.904 -0.2741 -1.3757  1.6642
  194SOL     MW  776   0.452   1.339   0.946 -0.6128 -0.4048  0.0985
  195SOL     OW  777   1.308   1.152   2.943  0.1918  0.4182  0.3222
  195SOL    HW1  778   1.336   1.182   3.032 -2.1995  1.5217  2.5454
  195SOL    HW2  779   1.232   1.093   2.959 -2.0091  0.3666  1.2191
  195SOL     MW  780   1.302   1.148   2.957 -0.4141  0.5570  0.7339
  196SOL     OW  781   2.183   1.053   0.606 -0.7403 -0.2490 -0.3214
  196SOL    HW1  782   2.136   1.030   0.528  1.2296 -0.9008 -0.9447
  196SOL    HW2  783   2.184   1.149   0.622 -1.4037 -0.3869  0.4364
  196SOL     MW  784   2.177   1.062   0.598 -0.5680 -0.3532 -0.3036
  197SOL     OW  785   0.568   1.227   2.005 -0.0109  0.6260 -0.0303
  197SOL    HW1  786   0.596   1.139   2.005 -0.5209  2.9865  1.1072
  197SOL    HW2  787   0.537   1.250   1.917 -1.4472 -1.4063  2.8735
  197SOL     MW  788   0.568   1.218   1.994 -0.2677  0.6693  0.5029
  198SOL     OW  789   2.918   1.369   1.068 -0.6630 -0.1923 -0.6207
  198SOL    HW1  790   2.906   1.453   1.017 -1.9358  1.5124 -1.3969
  198SOL    HW2  791   2.845   1.313   1.042  3.6741  0.2954 -1.2400
  198SOL     MW  792   2.907   1.373   1.058 -0.2587  0.0970 -0.8048
  199SOL     OW  793   0.480   1.272   1.740 -0.3761  0.1528 -0.0620
  199SOL    HW1  794   0.392   1.239   1.769 -1.2746  0.3356  2.7716
  199SOL    HW2  795   0.483   1.337   1.670  3.6024 -0.2265 -2.5112
  199SOL     MW  796   0.468   1.276   1.734  0.0303  0.1269 -0.0113
  200SOL     OW  797   1.929   3.056   1.308  0.3311  0.9204  0.6155
  200SOL    HW1  798   1.923   3.065   1.211  0.2242  1.3985 -0.4124
  200SOL    HW2  799   1.839   3.081   1.341 -1.5170 -1.5218 -0.4881
  200SOL     MW  800   1.917   3.060   1.300  0.0731  0.6613  0.3342
  201SOL     OW  801   1.134   0.327   0.810  0.4219 -0.1689  0.1048
  201SOL    HW1  802   1.114   0.240   0.842 -1.2204 -3.8465  1.6679
  201SOL    HW2  803   1.158   0.327   0.718 -0.8463  2.4933  1.2449
  201SOL     MW  804   1.135   0.316   0.802  0.0379 -0.3029  0.4615
  202SOL     OW  805   1.585   1.589   1.024 -0.1199  0.1581  0.0517
  202SOL    HW1  806   1.609   1.507   0.979 -1.6018 -1.0972  1.3206
  202SOL    HW2  807   1.618   1.583   1.116  2.2663  1.1558 -0.7658
  202SOL     MW  808   1.593   1.578   1.030 -0.0006  0.1241  0.1113
  203SOL     OW  809   3.021   0.479   1.216  0.3632 -0.7758  0.6370
  203SOL    HW1  810   3.087   0.428   1.169 -2.3490  0.1853 -0.3121
  203SOL    HW2  811   3.070   0.532   1.268 -1.9088  1.4485 -0.3344
  203SOL     MW  812   3.036   0.479   1.217 -0.2944 -0.3555  0.3836
  204SOL     OW  813   1.055   1.774   0.524  0.5228 -0.0668  0.3124
  204SOL    HW1  814   1.024   1.713   0.594  0.4785  0.1857 -1.4869
  204SOL    HW2  815   0.974   1.785   0.472  1.8278 -2.0853 -2.1201
  204SOL     MW  816   1.040   1.767   0.526  0.6891 -0.2998 -0.2459
  205SOL     OW  817   1.394   0.060   1.314  0.2327  0.8288  0.2143
  205SOL    HW1  818   1.341   0.035   1.238 -0.1313  1.0832 -1.1750
  205SOL    HW2  819   1.416   0.152   1.313 -0.1826  0.3757  1.9076
  205SOL     MW  820   1.390   0.069   1.304  0.1299  0.8025  0.2544
  206SOL     OW  821   0.534   3.091   1.370 -0.2599 -0.5219 -0.1782
  206SOL    HW1  822   0.482   3.077   1.290  0.0944  1.0422 -0.1917
  206SOL    HW2  823   0.574   3.002   1.389  0.3931  2.0989 -1.1007
  206SOL     MW  824   0.533   3.078   1.362 -0.1270  0.0303 -0.3017
  207SOL     OW  825   0.966   1.546   0.212  0.0509  0.1078  0.0764
  207SOL    HW1  826   0.978   1.640   0.183 -1.6800 -0.3790 -4.0202
  207SOL    HW2  827   1.039   1.535   0.272  3.0720 -1.7195  0.3738
  207SOL     MW  828   0.977   1.557   0.216  0.2211 -0.1975 -0.4249
  208SOL     OW  829   0.645   1.571   1.243  0.2609 -0.1733 -0.2603
  208SOL    HW1  830   0.713   1.585   1.304 -0.7929  1.3297  0.5307
  208SOL    HW2  831   0.612   1.476   1.260 -2.7225 -2.0593  0.3386
  208SOL     MW  832   0.649   1.560   1.253 -0.2718 -0.2238 -0.0770
  209SOL     OW  833   1.493   0.478   2.808 -0.0091  0.0730 -0.3420
  209SOL    HW1  834   1.515   0.568   2.799  0.4023  0.0864  2.8394
  209SOL    HW2  835   1.585   0.434   2.817  1.6256 -0.6459  1.4138
  209SOL     MW  836   1.508   0.484   2.808  0.2609 -0.0201  0.3094
  210SOL     OW  837   1.587   1.327   0.903 -0.2975  0.6009 -0.4120
  210SOL    HW1  838   1.661   1.319   0.849 -0.3794  0.0751 -0.3238
  210SOL    HW2  839   1.514   1.345   0.842 -1.9770  1.4818  0.4699
  210SOL     MW  840   1.587   1.328   0.888 -0.5299  0.6478 -0.2840
  211SOL     OW  841   1.719   0.461   0.920 -0.3156 -0.4663 -0.6979
  211SOL    HW1  842   1.693   0.439   0.825 -0.6257  1.6416  0.5898
  211SOL    HW2  843   1.819   0.475   0.920  2.1184  1.5740  0.4103
  211SOL     MW  844   1.729   0.460   0.908 -0.0354  0.0810 -0.3818
  212SOL     OW  845   0.266   1.102   0.037 -0.2905 -0.3785  0.1421
  212SOL    HW1  846   0.217   1.047   0.103  1.4714 -0.7891  0.1933
  212SOL    HW2  847   0.360   1.074   0.049 -2.8579 -1.7438  0.1144
  212SOL     MW  848   0.272   1.091   0.048 -0.3968 -0.6128  0.1452
  213SOL     OW  849   0.515   1.692   3.096 -0.6745 -0.2727  0.2045
  213SOL    HW1  850   0.560   1.760   3.153 -1.8115  2.3406 -0.7038
  213SOL    HW2  851   0.533   1.710   3.005 -0.5236  2.2601 -0.7661
  213SOL     MW  852   0.523   1.703   3.091 -0.8046  0.4063 -0.0434
  214SOL     OW  853   0.623   0.239   2.261 -0.0420  0.4129  0.3893
  214SOL    HW1  854   0.551   0.274   2.210 -1.8033 -1.3625 -0.7110
  214SOL    HW2  855   0.705   0.260   2.222  1.5887 -0.2760 -0.7954
  214SOL     MW  856   0.624   0.246   2.249 -0.0592  0.0877  0.0878
  215SOL     OW  857   0.507   0.723   2.649  0.0207  0.5480 -0.1012
  215SOL    HW1  858   0.516   0.736   2.557 -1.8564 -0.9588  0.0487
  215SOL    HW2  859   0.427   0.666   2.658  2.3343  0.4883  1.5118
  215SOL     MW  860   0.497   0.717   2.638  0.0783  0.3413  0.1314
  216SOL     OW  861   0.011   3.090   2.777 -0.2198 -0.3492 -0.1220
  216SOL    HW1  862  -0.069   3.061   2.835 -0.2886 -1.2046  0.4378
  216SOL    HW2  863  -0.017   3.178   2.750  0.3890  1.8898 -0.7786
  216SOL     MW  864  -0.003   3.098   2.781 -0.1485 -0.1666 -0.1347
  217SOL     OW  865   0.979   1.187   0.008 -0.0392  0.0177 -0.2791
  217SOL    HW1  866   1.032   1.109  -0.034  0.5014  0.6911  0.1524
  217SOL    HW2  867   1.038   1.271   0.008  3.5869  0.7931 -2.3622
  217SOL     MW  868   0.994   1.188   0.003  0.5106  0.2089 -0.4970
  218SOL     OW  869   0.918   1.393   2.484  0.4805  0.4040  0.0115
  218SOL    HW1  870   0.945   1.305   2.523 -2.5277 -0.6072 -0.1277
  218SOL    HW2  871   1.002   1.437   2.500 -3.7757  1.7743 -0.3864
  218SOL     MW  872   0.933   1.387   2.491 -0.4779  0.4514 -0.0594
  219SOL     OW  873   0.994   0.420   2.531  0.0464  0.4038 -0.3262
  219SOL    HW1  874   1.035   0.500   2.508 -0.6031 -0.7362 -2.4223
  219SOL    HW2  875   0.922   0.447   2.588  0.0472  0.0774 -2.0094
  219SOL     MW  876   0.990   0.434   2.535 -0.0392  0.2103 -0.8249
  220SOL     OW  877   1.766   0.542   2.174 -0.4118  0.0301  0.1648
  220SOL    HW1  878   1.689   0.587   2.149  0.7754 -1.2742 -2.0786
  220SOL    HW2  879   1.773   0.476   2.109  1.0752  1.7076  2.8835
  220SOL     MW  880   1.756   0.539   2.162 -0.0589  0.0793  0.2275
  221SOL     OW  881   0.404   1.435   2.920  0.1756 -0.4619 -0.2982
  221SOL    HW1  882   0.407   1.343   2.897 -3.0393 -0.5717  2.2997
  221SOL    HW2  883   0.421   1.479   2.830 -0.0302  2.5778  0.6122
  221SOL     MW  884   0.407   1.428   2.905 -0.2758 -0.0753  0.1647
  222SOL     OW  885   0.354   0.958   2.662 -0.7272  0.4894 -0.1014
  222SOL    HW1  886   0.322   0.971   2.574 -0.7805 -0.4143 -2.6970
  222SOL    HW2  887   0.406   0.880   2.660  0.1323 -0.1939 -0.9973
  222SOL     MW  888   0.357   0.949   2.650 -0.6208  0.2800 -0.5620
  223SOL     OW  889   3.080   1.996   2.653  0.5480 -0.2471 -0.4182
  223SOL    HW1  890   3.159   1.941   2.682 -0.9662 -2.2984 -0.9271
  223SOL    HW2  891   3.102   2.052   2.571  0.2196 -1.6095 -5.1681
  223SOL     MW  892   3.094   1.996   2.646  0.3049 -0.6975 -1.1120
  224SOL     OW  893   1.526   0.834   2.586 -0.4719  0.1748 -0.5220
  224SOL    HW1  894   1.501   0.871   2.668 -0.1520  0.1957  0.1198
  224SOL    HW2  895   1.528   0.908   2.527 -0.9158 -0.9475  1.7889
  224SOL     MW  896   1.523   0.849   2.589 -0.4883  0.0295 -0.1324
  225SOL     OW  897   2.920   1.479   2.239 -0.5537  0.1099 -0.7484
  225SOL    HW1  898   2.984   1.534   2.190  2.3495  0.7519  0.7446
  225SOL    HW2  899   2.874   1.541   2.301 -0.7877  1.4325  2.3324
  225SOL     MW  900   2.922   1.494   2.241 -0.2015  0.3691 -0.1449
  226SOL     OW  901   0.406   1.506   2.634 -0.4717 -0.3540 -0.3171
  226SOL    HW1  902   0.492   1.476   2.602  1.8308 -2.4489 -2.2152
  226SOL    HW2  903   0.408   1.599   2.623 -0.5740 -1.5907  0.8332
  226SOL     MW  904   0.417   1.515   2.629 -0.1814 -0.7936 -0.4158
  227SOL     OW  905   0.426   1.145   2.834  0.5184 -0.2742 -0.0376
  227SOL    HW1  906   0.514   1.187   2.826 -2.3815  0.2018 -1.0800
  227SOL    HW2  907   0.416   1.082   2.765  3.7699  0.7904 -0.0690
  227SOL     MW  908   0.436   1.142   2.824  0.5648 -0.0709 -0.1792
  228SOL     OW  909   0.684   0.977   1.996  0.2499  0.1483 -0.5514
  228SOL    HW1  910   0.779   0.989   1.969  0.4923 -0.4413 -0.0272
  228SOL    HW2  911   0.694   0.951   2.090  0.3164  0.0728 -1.8818
  228SOL     MW  912   0.698   0.975   2.004  0.2906  0.0606 -0.6577
  229SOL     OW  913   0.243   0.484   3.070  0.0722  0.5339  0.5059
  229SOL    HW1  914   0.162   0.468   3.023  3.1550  0.4255  1.7899
  229SOL    HW2  915   0.229   0.442   3.157 -0.9924  0.7217  0.0614
  229SOL     MW  916   0.231   0.476   3.075  0.3385  0.5444  0.6166
  230SOL     OW  917   1.766   1.346   2.112  0.1847 -0.2158 -0.1017
  230SOL    HW1  918   1.748   1.355   2.207 -1.1189 -0.3942  0.7455
  230SOL    HW2  919   1.784   1.252   2.097 -0.4130  1.2726  0.2521
  230SOL     MW  920   1.766   1.335   2.122 -0.0662 -0.0430  0.0567
  231SOL     OW  921   2.813   1.231   2.181 -0.2524  0.0284 -0.5740
  231SOL    HW1  922   2.846   1.322   2.184  1.5354  2.0616  2.2348
  231SOL    HW2  923   2.745   1.255   2.117 -0.9614  0.0426 -1.2178
  231SOL     MW  924   2.809   1.246   2.173 -0.1100  0.2985 -0.2884
  232SOL     OW  925   2.280   0.953   2.098 -0.2470 -0.3656 -0.2560
  232SOL    HW1  926   2.204   0.983   2.045  0.8428 -0.5528  2.1867
  232SOL    HW2  927   2.239   0.933   2.179 -2.6970 -2.4956 -1.1745
  232SOL     MW  928   2.265   0.954   2.102 -0.4265 -0.6713 -0.0549
  233SOL     OW  929   2.065   0.546   1.938  0.6901 -0.1058 -0.2120
  233SOL    HW1  930   2.124   0.586   1.869  0.2397  1.2225 -0.6491
  233SOL    HW2  931   2.130   0.521   2.009 -0.7712  0.0184  0.2234
  233SOL     MW  932   2.081   0.548   1.938  0.4379  0.0858 -0.2123
  234SOL     OW  933   0.241   0.962   2.415  0.5021  0.2123 -0.8429
  234SOL    HW1  934   0.146   0.990   2.420 -0.6868  2.1641 -0.0118
  234SOL    HW2  935   0.281   1.029   2.362  2.5138 -0.1476  0.0500
  234SOL     MW  936   0.234   0.975   2.409  0.6107  0.4223 -0.6155
  235SOL     OW  937   0.980   3.053   2.797  0.0044  0.1466 -0.0682
  235SOL    HW1  938   1.023   2.994   2.860 -0.7774  0.4643  3.0644
  235SOL    HW2  939   0.970   3.137   2.846  0.4320  2.0025 -2.2132
  235SOL     MW  940   0.984   3.057   2.812 -0.0423  0.4333  0.0621
  236SOL     OW  941   2.939   0.503   0.085  0.1173  0.5865 -0.3271
  236SOL    HW1  942   2.875   0.504   0.011 -0.9806 -0.0643  1.0062
  236SOL    HW2  943   2.959   0.603   0.095 -1.1136 -1.6833  1.1540
  236SOL     MW  944   2.933   0.516   0.077 -0.1900  0.2011  0.0442
  237SOL     OW  945   1.752   0.875   2.172  0.6184 -0.2999  0.1584
  237SOL    HW1  946   1.766   0.962   2.124  0.3353  0.9157 -1.6799
  237SOL    HW2  947   1.794   0.887   2.259 -1.3533 -0.7195 -1.3937
  237SOL     MW  948   1.759   0.888   2.177  0.3209 -0.1949 -0.2889
  238SOL     OW  949   1.105   1.757   2.974  0.0901  0.1771  0.0964
  238SOL    HW1  950   1.045   1.682   2.984  0.0269  0.9443 -0.1855
  238SOL    HW2  951   1.197   1.725   2.949  1.0265 -3.6377 -0.9292
  238SOL     MW  952   1.109   1.743   2.972  0.2053 -0.2250 -0.0761
  239SOL     OW  953   1.218   1.387   2.316 -0.5086 -0.0830 -0.2306
  239SOL    HW1  954   1.266   1.370   2.394 -1.8781 -0.9250 -1.1208
  239SOL    HW2  955   1.143   1.331   2.312 -1.4081 -1.1237  0.4543
  239SOL     MW  956   1.214   1.378   2.326 -0.8080 -0.3314 -0.2577
  240SOL     OW  957   0.636   0.832   2.234 -0.7595 -0.1374  0.4548
  240SOL    HW1  958   0.613   0.887   2.309 -0.2921  0.3894  0.1200
  240SOL    HW2  959   0.728   0.821   2.233 -2.9975  1.9314  0.2264
  240SOL     MW  960   0.645   0.838   2.244 -0.9931  0.2050  0.3805
  241SOL     OW  961   0.646   0.387   2.952  0.3345 -0.1074 -0.2711
  241SOL    HW1  962   0.619   0.415   3.041 -3.0812  2.0333 -1.9263
  241SOL    HW2  963   0.565   0.404   2.901 -0.1408 -3.6739  1.3073
  241SOL     MW  964   0.632   0.393   2.957 -0.1789 -0.2955 -0.2813
  242SOL     OW  965   1.425   1.672   2.358  0.3857  0.2163 -0.3318
  242SOL    HW1  966   1.418   1.756   2.396 -3.8813  1.1166 -0.4681
  242SOL    HW2  967   1.344   1.653   2.313  0.1499 -0.1615  0.2172
  242SOL     MW  968   1.413   1.680   2.357 -0.2084  0.2852 -0.2773
  243SOL     OW  969   1.009   0.212   2.349 -0.5039 -0.5550 -0.5835
  243SOL    HW1  970   1.103   0.226   2.336 -0.6815 -0.1159 -0.0479
  243SOL    HW2  971   0.982   0.282   2.403 -0.0348 -0.7623 -0.2773
  243SOL     MW  972   1.018   0.223   2.354 -0.4654 -0.5244 -0.4725
  244SOL     OW  973   0.205   0.720   2.274 -0.1191 -0.2663  0.0903
  244SOL    HW1  974   0.213   0.807   2.324 -0.0049 -0.6441  0.5211
  244SOL    HW2  975   0.297   0.697   2.286 -4.2036  0.5080  1.7435
  244SOL     MW  976   0.219   0.728   2.282 -0.6430 -0.2140  0.3652
  245SOL     OW  977   1.278   0.147   2.274 -1.2167  0.6743 -0.1031
  245SOL    HW1  978   1.278   0.051   2.279 -4.0401  0.0816  0.5559
  245SOL    HW2  979   1.340   0.161   2.344 -2.8368  0.0594  0.3240
  245SOL     MW  980   1.286   0.136   2.284 -1.8029  0.5149  0.0402
  246SOL     OW  981   1.167   1.142   2.154 -0.6987  0.1103  0.1382
  246SOL    HW1  982   1.114   1.112   2.229  1.6973 -0.2533  0.0742
  246SOL    HW2  983   1.243   1.188   2.196  3.0137  1.3678  0.8173
  246SOL     MW  984   1.170   1.144   2.169  0.1073  0.2282  0.2194
  247SOL     OW  985   0.657   0.533   0.142  0.1793  0.0308 -0.3936
  247SOL    HW1  986   0.609   0.611   0.118  1.4432 -1.0344 -0.4348
  247SOL    HW2  987   0.745   0.555   0.113 -0.2609  0.6552  0.6368
  247SOL     MW  988   0.662   0.546   0.135  0.2879 -0.0274 -0.2631
  248SOL     OW  989   0.422   1.212   2.419  0.7846  0.0648  0.3197
  248SOL    HW1  990   0.441   1.258   2.333  1.2664  0.9840  0.2420
  248SOL    HW2  991   0.390   1.281   2.470 -3.0878 -1.5960  0.4584
  248SOL     MW  992   0.420   1.227   2.414  0.3373 -0.0330  0.3278
  249SOL     OW  993   0.166   1.800   2.712  0.1840 -0.2662 -0.0865
  249SOL    HW1  994   0.139   1.716   2.676  1.3358 -1.3310  0.5641
  249SOL    HW2  995   0.197   1.781   2.800  1.5080  0.3232 -0.0799
  249SOL     MW  996   0.167   1.786   2.719  0.5106 -0.3289  0.0002
  250SOL     OW  997   2.169   0.901   2.362 -0.2373 -1.0711  0.1469
  250SOL    HW1  998   2.225   0.823   2.350 -3.1755  1.8065 -0.8777
  250SOL    HW2  999   2.220   0.959   2.424 -0.3872 -2.8274  0.2186
  250SOL     MW 1000   2.183   0.898   2.369 -0.6447 -0.9232  0.0212
  251SOL     OW 1001   0.180   0.831   2.000  0.2372 -0.5381 -0.5274
  251SOL    HW1 1002   0.214   0.796   2.080 -0.7564  0.1965  1.2753
  251SOL    HW2 1003   0.123   0.765   1.963  2.7986  2.9444 -1.6238
  251SOL     MW 1004   0.177   0.818   2.006  0.4441  0.0183 -0.4343
  252SOL     OW 1005   1.682   1.022   2.844  0.1586 -0.0699 -0.3319
  252SOL    HW1 1006   1.700   1.058   2.933  0.0090 -1.6259  1.3699
  252SOL    HW2 1007   1.752   1.054   2.786  0.1446 -2.9900  0.1960
  252SOL     MW 1008   1.693   1.031   2.848  0.1370 -0.6605 -0.0377
  253SOL     OW 1009   1.150   1.726   2.549  0.0423 -0.0440  0.3524
  253SOL    HW1 1010   1.147   1.763   2.463  0.7216 -1.6399  0.8256
  253SOL    HW2 1011   1.063   1.755   2.589  0.8436  0.4480 -2.3424
  253SOL     MW 1012   1.138   1.735   2.543  0.2377 -0.1896  0.0593
  254SOL     OW 1013   1.002   1.041   2.345  0.6349 -0.4697  0.5247
  254SOL    HW1 1014   0.977   0.948   2.347  0.7792  0.6046 -0.3674
  254SOL    HW2 1015   0.925   1.081   2.304  0.7593 -1.5998  4.5141
  254SOL     MW 1016   0.988   1.034   2.340  0.6703 -0.4771  0.9334
  255SOL     OW 1017   0.778   2.400   2.246  0.5301  0.4046  0.1568
  255SOL    HW1 1018   0.684   2.382   2.242 -0.8078  0.5288 -2.6094
  255SOL    HW2 1019   0.802   2.428   2.333  1.2634  0.5148 -0.6334
  255SOL     MW 1020   0.769   2.402   2.257  0.4503  0.4355 -0.3124
  256SOL     OW 1021   1.178   2.855   2.917 -0.7009 -0.7598 -0.3256
  256SOL    HW1 1022   1.207   2.758   2.914  1.6670 -0.7282  0.3294
  256SOL    HW2 1023   1.262   2.895   2.891 -0.1635  0.2131 -4.0536
  256SOL     MW 1024   1.193   2.847   2.913 -0.3175 -0.6272 -0.7310
  257SOL     OW 1025   0.102   1.860   0.040  0.3591  0.1619  0.2507
  257SOL    HW1 1026   0.127   1.813   0.125  1.9455  0.7879 -3.2533
  257SOL    HW2 1027   0.135   1.801  -0.031 -1.3170  1.2231 -0.0985
  257SOL     MW 1028   0.110   1.846   0.041  0.3473  0.3845 -0.2577
  258SOL     OW 1029   0.653   1.052   2.448  0.6040  0.2416  0.8621
  258SOL    HW1 1030   0.710   1.115   2.403 -0.6747  0.0152  1.6437
  258SOL    HW2 1031   0.569   1.090   2.443 -2.2349 -2.2801  1.0566
  258SOL     MW 1032   0.650   1.065   2.441  0.0607 -0.1209  0.9909
  259SOL     OW 1033   0.632   0.457   2.473  0.7399  1.1054 -0.5549
  259SOL    HW1 1034   0.563   0.514   2.431  2.8865  0.1322  0.5770
  259SOL    HW2 1035   0.614   0.372   2.426  0.1341 -2.3201  0.2669
  259SOL     MW 1036   0.620   0.453   2.461  0.9432  0.5250 -0.2971
  260SOL     OW 1037   0.631   0.146   1.577 -0.3541  0.0722  0.3797
  260SOL    HW1 1038   0.592   0.105   1.500  2.7565 -2.5497  1.0975
  260SOL    HW2 1039   0.727   0.175   1.561  1.5004 -1.4661  0.8092
  260SOL     MW 1040   0.638   0.145   1.565  0.3010 -0.4767  0.5311
  261SOL     OW 1041   1.099   0.686   2.112  0.5695 -0.7666  0.0863
  261SOL    HW1 1042   1.159   0.684   2.186  2.0521 -0.6531 -1.1315
  261SOL    HW2 1043   1.143   0.629   2.053 -1.6747 -0.4432  2.1572
  261SOL     MW 1044   1.112   0.678   2.114  0.4690 -0.7090  0.1989
  262SOL     OW 1045   1.122   0.351   0.078  0.2939 -0.2529 -0.0945
  262SOL    HW1 1046   1.216   0.365   0.060 -0.4217 -1.3022 -1.0717
  262SOL    HW2 1047   1.080   0.307   0.006 -0.3273  1.3100  3.5288
  262SOL     MW 1048   1.129   0.347   0.066  0.1175 -0.1851  0.2546
  263SOL     OW 1049   0.461   3.014   2.519  1.0646  0.0323  0.0989
  263SOL    HW1 1050   0.403   3.086   2.505  0.5506  2.0175 -1.8104
  263SOL    HW2 1051   0.495   3.010   2.426  0.9526 -0.4433 -1.5317
  263SOL     MW 1052   0.458   3.023   2.505  0.9820  0.2315 -0.3682
  264SOL     OW 1053   1.550   1.367   1.947  0.2823 -0.0730 -0.1661
  264SOL    HW1 1054   1.487   1.355   2.020  1.0603  0.9112 -0.5145
  264SOL    HW2 1055   1.638   1.344   1.989 -1.3813 -1.1655  2.6693
  264SOL     MW 1056   1.553   1.362   1.962  0.1654 -0.0873  0.1620
  265SOL     OW 1057   0.678   2.750   2.234 -0.2888 -0.3933  0.2705
  265SOL    HW1 1058   0.744   2.676   2.216  0.7798  0.9295  1.5876
  265SOL    HW2 1059   0.674   2.756   2.328  0.0778  0.4349 -0.4886
  265SOL     MW 1060   0.686   2.741   2.244 -0.0995 -0.1095  0.3442
  266SOL     OW 1061   0.889   0.767   2.272  0.0740  0.4625 -0.3483
  266SOL    HW1 1062   0.952   0.706   2.218  2.6820  0.2071 -0.5168
  266SOL    HW2 1063   0.868   0.726   2.359 -0.8962 -1.3071  1.4729
  266SOL     MW 1064   0.894   0.753   2.276  0.2901  0.1953 -0.1302
  267SOL     OW 1065   1.371   1.822   2.686 -0.1138 -0.4750  0.0710
  267SOL    HW1 1066   1.438   1.756   2.659  1.3929 -3.2401 -2.4970
  267SOL    HW2 1067   1.292   1.800   2.645  0.2357  0.1724  2.0533
  267SOL     MW 1068   1.370   1.811   2.677  0.1311 -0.7544 -0.0063
  268SOL     OW 1069   0.203   0.764   1.695 -0.4087 -0.0552  0.1976
  268SOL    HW1 1070   0.128   0.813   1.666  3.0807  3.0073  2.3685
  268SOL    HW2 1071   0.199   0.678   1.642  1.5158  1.6442  1.0920
  268SOL     MW 1072   0.192   0.759   1.684  0.3057  0.5731  0.6020
  269SOL     OW 1073   1.445   1.957   2.442  0.3572  0.1086  0.5004
  269SOL    HW1 1074   1.422   1.946   2.538  1.6825  0.2925 -3.6128
  269SOL    HW2 1075   1.371   2.009   2.400 -0.7274 -1.0192 -2.4356
  269SOL     MW 1076   1.432   1.962   2.449  0.3889 -0.0159 -0.4297
  270SOL     OW 1077   1.180   0.458   1.622  0.0513  0.3141  0.0980
  270SOL    HW1 1078   1.158   0.365   1.653 -0.3342 -1.0130 -0.9958
  270SOL    HW2 1079   1.270   0.455   1.591 -3.2702 -0.9867  0.8477
  270SOL     MW 1080   1.189   0.446   1.622 -0.4378 -0.0327  0.0526
  271SOL     OW 1081   0.867   3.082   2.404  0.3638 -0.2257 -0.1854
  271SOL    HW1 1082   0.914   3.007   2.447  0.6941 -1.1532 -1.5692
  271SOL    HW2 1083   0.926   3.159   2.401 -1.8518  3.8613  2.2667
  271SOL     MW 1084   0.881   3.083   2.409  0.1150  0.1912 -0.0444
  272SOL     OW 1085   1.387   3.006   2.822  0.0320 -0.2918  0.4292
  272SOL    HW1 1086   1.347   3.031   2.740  0.3858  0.5465 -0.6684
  272SOL    HW2 1087   1.365   3.079   2.891  0.1833  1.0812  0.4239
  272SOL     MW 1088   1.379   3.019   2.820  0.0987 -0.0001  0.2837
  273SOL     OW 1089   1.446   0.924   2.877  0.1212  0.1817  0.3243
  273SOL    HW1 1090   1.538   0.956   2.856 -0.2151 -1.6740 -0.1248
  273SOL    HW2 1091   1.409   1.013   2.885  2.6717  0.8516  1.5964
  273SOL     MW 1092   1.453   0.940   2.875  0.4134  0.0253  0.4329
  274SOL     OW 1093   1.352   0.731   0.130  0.0753  0.1411  0.3675
  274SOL    HW1 1094   1.392   0.657   0.177  0.6054 -0.5902  2.3153
  274SOL    HW2 1095   1.260   0.741   0.178 -2.4256 -2.1835 -0.9537
  274SOL     MW 1096   1.345   0.723   0.143 -0.1848 -0.2621  0.4502
  275SOL     OW 1097   1.702   0.672   1.810  0.4733  1.0075  0.2668
  275SOL    HW1 1098   1.760   0.714   1.876 -2.8902  0.7373  0.3720
  275SOL    HW2 1099   1.659   0.596   1.847  0.5809  0.6362 -0.5677
  275SOL     MW 1100   1.704   0.668   1.823  0.0437  0.9229  0.1706
  276SOL     OW 1101   0.245   1.161   1.816  0.9072  0.3469 -0.2222
  276SOL    HW1 1102   0.300   1.093   1.853 -0.0677 -2.5838  0.4981
  276SOL    HW2 1103   0.169   1.173   1.874  0.3089  1.0415 -2.7674
  276SOL     MW 1104   0.243   1.154   1.828  0.6997  0.0519 -0.4630
  277SOL     OW 1105   1.952   1.372   2.670 -0.0359 -0.0464 -0.5963
  277SOL    HW1 1106   1.975   1.460   2.670 -1.9831  0.8356 -0.6365
  277SOL    HW2 1107   2.020   1.320   2.707 -0.6658 -1.7756  1.1280
  277SOL     MW 1108   1.964   1.377   2.675 -0.3759 -0.1582 -0.3741
  278SOL     OW 1109   1.421   0.669   1.736 -0.0278 -0.3693 -0.4282
  278SOL    HW1 1110   1.382   0.606   1.800 -1.3383  0.0203 -0.5334
  278SOL    HW2 1111   1.505   0.710   1.772  1.8352 -0.3165  0.6836
  278SOL     MW 1112   1.427   0.666   1.749  0.0451 -0.3110 -0.2954
  279SOL     OW 1113   0.581   3.065   2.273 -0.5475 -0.1020  0.5916
  279SOL    HW1 1114   0.659   3.019   2.238  0.0081 -2.4722  1.5228
  279SOL    HW2 1115   0.616   3.150   2.301  4.0612 -0.4907 -3.5034
  279SOL     MW 1116   0.596   3.070   2.272  0.1339 -0.4660  0.1742
  280SOL     OW 1117   1.470   1.164   2.227  0.6032 -0.2900  0.2243
  280SOL    HW1 1118   1.476   1.085   2.170  2.3745 -0.7163 -0.8152
  280SOL    HW2 1119   1.482   1.144   2.322  0.5938 -2.1853  1.8498
  280SOL     MW 1120   1.472   1.151   2.232  0.8357 -0.5963  0.3016
  281SOL     OW 1121   1.271   1.430   2.836 -0.6287 -0.0825  0.0361
  281SOL    HW1 1122   1.368   1.431   2.824 -0.7167  0.2602 -0.1557
  281SOL    HW2 1123   1.261   1.339   2.852  2.7849  0.0093 -1.7451
  281SOL     MW 1124   1.282   1.418   2.836 -0.1899 -0.0251 -0.2242
  282SOL     OW 1125   1.093   1.296   1.690  0.4161  0.2720  0.3489
  282SOL    HW1 1126   1.096   1.367   1.624 -0.2535 -0.0121 -2.4983
  282SOL    HW2 1127   1.020   1.251   1.652  3.4236 -0.8791 -2.6322
  282SOL     MW 1128   1.084   1.299   1.676  0.7246  0.0827 -0.4201
  283SOL     OW 1129   0.712   1.222   3.085 -0.0515 -0.0973  0.0317
  283SOL    HW1 1130   0.808   1.229   3.095 -0.6136 -2.4070  1.3238
  283SOL    HW2 1131   0.690   1.314   3.100 -0.2941 -1.5136 -1.2865
  283SOL     MW 1132   0.722   1.235   3.088 -0.1576 -0.5889  0.0282
  284SOL     OW 1133   0.461   0.609   2.333  0.5453  0.6089  0.2218
  284SOL    HW1 1134   0.531   0.662   2.282  0.4283 -0.9280 -0.6159
  284SOL    HW2 1135   0.425   0.544   2.268  0.8080 -0.9865  0.7694
  284SOL     MW 1136   0.466   0.608   2.318  0.5645  0.1956  0.1835
  285SOL     OW 1137   0.910   0.915   2.809 -0.3217  0.3501  1.0053
  285SOL    HW1 1138   0.919   0.948   2.718 -2.6769 -2.1149  2.1359
  285SOL    HW2 1139   0.850   0.841   2.818 -2.2924 -2.3917  0.8023
  285SOL     MW 1140   0.903   0.910   2.799 -0.8925 -0.3369  1.1277
  286SOL     OW 1141   1.161   1.457   2.583  0.3295  0.1372  0.3482
  286SOL    HW1 1142   1.202   1.456   2.673 -1.9146  1.1812  1.6800
  286SOL    HW2 1143   1.171   1.550   2.568  2.4111 -0.2958 -0.7058
  286SOL     MW 1144   1.167   1.469   2.593  0.3081  0.2178  0.3848
  287SOL     OW 1145   1.064   0.966   0.425 -0.4460  0.0491  0.1765
  287SOL    HW1 1146   1.155   0.981   0.454 -0.6325  1.7752  1.6431
  287SOL    HW2 1147   1.044   1.048   0.386 -0.5498 -1.1342 -1.3827
  287SOL     MW 1148   1.074   0.979   0.423 -0.4843  0.1207  0.1643
  288SOL     OW 1149   1.512   0.660   2.162  0.1067 -0.2526 -0.0814
  288SOL    HW1 1150   1.503   0.673   2.257 -1.1764 -1.0743 -2.1549
  288SOL    HW2 1151   1.500   0.744   2.125  0.2049 -1.9313 -0.9457
  288SOL     MW 1152   1.509   0.673   2.170 -0.0496 -0.5825 -0.4690
  289SOL     OW 1153   0.894   1.095   2.584  0.6978 -0.6582 -0.7691
  289SOL    HW1 1154   0.955   1.065   2.513  2.0713  1.1760 -0.4908
  289SOL    HW2 1155   0.803   1.069   2.551 -2.9381  1.0790 -0.3987
  289SOL     MW 1156   0.890   1.087   2.571  0.3993 -0.1870 -0.6835
  290SOL     OW 1157   0.861   0.668   1.527 -0.1997 -1.0266 -0.0793
  290SOL    HW1 1158   0.898   0.599   1.472 -0.3599 -1.0252  0.8139
  290SOL    HW2 1159   0.901   0.643   1.610  1.2918 -2.2935  0.8746
  290SOL     MW 1160   0.872   0.656   1.531 -0.0240 -1.1935  0.1644
  291SOL     OW 1161   0.207   0.350   0.209 -0.1556 -0.3746  0.2022
  291SOL    HW1 1162   0.292   0.345   0.248 -1.1363  0.4275  1.0861
  291SOL    HW2 1163   0.191   0.273   0.152  2.2893  0.6693  0.5175
  291SOL     MW 1164   0.216   0.339   0.206  0.0376 -0.1310  0.3604
  292SOL     OW 1165   0.939   0.575   0.082  0.2678 -0.0108  0.2734
  292SOL    HW1 1166   0.967   0.646   0.143  0.9904 -0.2460 -0.1346
  292SOL    HW2 1167   1.011   0.509   0.090 -1.1586 -0.3577  0.2892
  292SOL     MW 1168   0.952   0.576   0.091  0.1749 -0.0876  0.2216
  293SOL     OW 1169   0.240   0.080   2.492 -0.1882 -0.4744  0.4024
  293SOL    HW1 1170   0.154   0.054   2.462 -0.1138 -1.0472  0.0807
  293SOL    HW2 1171   0.227   0.141   2.569  1.8259  1.3891 -2.0713
  293SOL     MW 1172   0.227   0.085   2.498  0.0874 -0.3041  0.0336
  294SOL     OW 1173   1.459   0.627   2.430  0.5005 -0.0893 -0.1171
  294SOL    HW1 1174   1.489   0.702   2.490  1.4367  1.9326  1.1227
  294SOL    HW2 1175   1.531   0.563   2.447  0.6708  0.9001  2.5480
  294SOL     MW 1176   1.472   0.628   2.440  0.6465  0.3080  0.3981
  295SOL     OW 1177   0.810   0.661   2.521  0.3174 -0.1101  0.1560
  295SOL    HW1 1178   0.756   0.582   2.502 -0.7115  2.4983  0.6091
  295SOL    HW2 1179   0.793   0.681   2.616  3.1787  3.2524 -0.4756
  295SOL     MW 1180   0.801   0.653   2.531  0.5592  0.6777  0.1325
  296SOL     OW 1181   1.285   0.314   2.058  0.5856 -0.1751  0.4362
  296SOL    HW1 1182   1.342   0.264   2.006 -1.9060  0.9905 -0.6868
  296SOL    HW2 1183   1.278   0.267   2.141 -2.8004  0.2158  1.6610
  296SOL     MW 1184   1.291   0.301   2.062 -0.1899  0.0302  0.4496
  297SOL     OW 1185   1.416   0.418   1.490  0.1518  0.0569  0.1031
  297SOL    HW1 1186   1.468   0.497   1.469 -0.9772 -1.2649  0.8446
  297SOL    HW2 1187   1.459   0.375   1.562 -1.3020  1.7382 -0.3104
  297SOL     MW 1188   1.428   0.422   1.497 -0.1890  0.1044  0.1464
  298SOL     OW 1189   1.507   0.918   2.068  0.4672 -0.2344  0.1717
  298SOL    HW1 1190   1.526   0.985   2.003 -1.2983  1.0307  0.0302
  298SOL    HW2 1191   1.592   0.890   2.101 -1.9329  0.7357  0.3928
  298SOL     MW 1192   1.521   0.923   2.064 -0.0824  0.0605  0.1822
  299SOL     OW 1193   0.516   1.035   3.066  0.4097  0.1299  0.8174
  299SOL    HW1 1194   0.592   1.089   3.077  0.7439  1.2250  1.8833
  299SOL    HW2 1195   0.480   1.048   2.973 -1.6029 -2.0454 -0.1133
  299SOL     MW 1196   0.522   1.044   3.055  0.1882 -0.0126  0.8353
  300SOL     OW 1197   1.231   1.122   2.504  0.0289  0.2023 -0.1901
  300SOL    HW1 1198   1.171   1.055   2.482  0.2679 -2.9356 -1.0444
  300SOL    HW2 1199   1.194   1.161   2.580 -1.4533  2.7796  0.2954
  300SOL     MW 1200   1.218   1.119   2.511 -0.1351  0.1283 -0.2388
  301SOL     OW 1201   1.384   0.719   0.586 -0.1789 -0.3733 -0.4473
  301SOL    HW1 1202   1.392   0.713   0.684 -2.0575  1.0046  1.0369
  301SOL    HW2 1203   1.309   0.666   0.556 -3.1290 -0.2633 -1.8595
  301SOL     MW 1204   1.375   0.711   0.595 -0.8160 -0.1770 -0.4378
  302SOL     OW 1205   0.152   1.443   1.923 -0.3184  0.4405  0.1266
  302SOL    HW1 1206   0.144   1.405   2.011 -1.9344  0.6132 -0.9843
  302SOL    HW2 1207   0.121   1.531   1.945  1.5071 -1.3561 -1.1954
  302SOL     MW 1208   0.147   1.450   1.938 -0.2908  0.2263 -0.1944
  303SOL     OW 1209   0.402   1.775   2.584 -0.5788 -0.0430 -0.0277
  303SOL    HW1 1210   0.392   1.795   2.492 -2.3084 -3.8873 -0.1872
  303SOL    HW2 1211   0.320   1.802   2.623  0.9969  2.7039 -0.8856
  303SOL     MW 1212   0.390   1.781   2.577 -0.5991 -0.1878 -0.1619
  304SOL     OW 1213   0.482   2.070   2.428  0.5611  0.3478 -0.1965
  304SOL    HW1 1214   0.506   2.133   2.359 -1.0035 -0.6108 -0.1989
  304SOL    HW2 1215   0.549   1.999   2.439  0.2939 -0.7167  0.9352
  304SOL     MW 1216   0.494   2.069   2.420  0.3194  0.0808 -0.0475
  305SOL     OW 1217   1.175   0.558   0.503 -0.0496 -0.0466  0.2724
  305SOL    HW1 1218   1.088   0.529   0.515 -2.1544 -0.9189  1.6239
  305SOL    HW2 1219   1.209   0.469   0.491 -1.0945 -1.4983  1.6452
  305SOL     MW 1220   1.168   0.542   0.503 -0.4652 -0.3532  0.6318
  306SOL     OW 1221   1.240   1.431   0.304  0.0086  0.7796  0.6182
  306SOL    HW1 1222   1.259   1.371   0.379 -1.7315  0.1896 -1.2347
  306SOL    HW2 1223   1.272   1.386   0.228 -0.7234 -2.1433 -1.9103
  306SOL     MW 1224   1.247   1.417   0.304 -0.3176  0.3161  0.0401
  307SOL     OW 1225   1.309   0.556   1.972  0.2596  0.1050 -0.7704
  307SOL    HW1 1226   1.290   0.460   1.991  0.0120  0.3722  2.1293
  307SOL    HW2 1227   1.366   0.571   2.043 -0.5173 -1.9430 -1.1264
  307SOL     MW 1228   1.314   0.545   1.984  0.1244 -0.1299 -0.4347
  308SOL     OW 1229   2.121   0.609   2.717 -1.0890  0.2641 -0.7293
  308SOL    HW1 1230   2.090   0.514   2.727  1.9413 -2.0562  0.5495
  308SOL    HW2 1231   2.202   0.628   2.773  0.6417 -1.5097 -0.6994
  308SOL     MW 1232   2.128   0.599   2.726 -0.4608 -0.2761 -0.5567
  309SOL     OW 1233   0.568   0.485   0.404 -0.4700 -0.0800  0.3842
  309SOL    HW1 1234   0.584   0.395   0.429 -0.7239 -1.0354 -0.5143
  309SOL    HW2 1235   0.580   0.486   0.307  2.3638 -0.8221 -0.4879
  309SOL     MW 1236   0.571   0.473   0.394 -0.1296 -0.3040  0.1506
  310SOL     OW 1237   0.420   0.524   1.914 -0.1086  0.2690  0.1814
  310SOL    HW1 1238   0.462   0.454   1.865  1.2173 -0.5731 -0.3293
  310SOL    HW2 1239   0.492   0.587   1.934 -0.3304  0.6691 -0.7304
  310SOL     MW 1240   0.435   0.523   1.910  0.0371  0.2107 -0.0063
  311SOL     OW 1241   1.914   0.766   1.971 -0.1932 -0.8196  0.6999
  311SOL    HW1 1242   1.888   0.779   2.061 -1.5077 -0.7316  0.3698
  311SOL    HW2 1243   1.959   0.680   1.972 -2.2843  1.7207 -0.1280
  311SOL     MW 1244   1.916   0.757   1.983 -0.6426 -0.4728  0.5471
  312SOL     OW 1245   1.746   2.557  -0.001  0.6046 -0.2809  0.3253
  312SOL    HW1 1246   1.775   2.571   0.090 -0.0686 -2.3328  0.9211
  312SOL    HW2 1247   1.649   2.542  -0.010 -2.7890  0.2492  0.6539
  312SOL     MW 1248   1.737   2.557   0.010  0.0680 -0.4817  0.4473
  313SOL     OW 1249   0.081   1.227   2.952 -0.1513  0.6068  0.4467
  313SOL    HW1 1250   0.134   1.216   3.032  0.7442 -2.6013  0.1944
  313SOL    HW2 1251   0.140   1.224   2.871  1.2951  1.8434  1.0651
  313SOL     MW 1252   0.095   1.225   2.952  0.1577  0.3467  0.4950
  314SOL     OW 1253   2.154   3.049   2.970  0.2684 -0.2681 -0.2119
  314SOL    HW1 1254   2.083   3.112   2.926 -0.1327 -0.5667 -1.0051
  314SOL    HW2 1255   2.191   3.107   3.036  0.9988 -0.8029 -0.1960
  314SOL     MW 1256   2.149   3.065   2.973  0.3118 -0.3781 -0.3144
  315SOL     OW 1257   1.568   1.970   3.028 -0.2399 -0.4330 -0.2695
  315SOL    HW1 1258   1.490   1.999   3.073 -0.9780  0.7736  0.6738
  315SOL    HW2 1259   1.587   2.040   2.961  1.9211  2.2847  0.9233
  315SOL     MW 1260   1.560   1.983   3.025 -0.0521  0.0847  0.0123
  316SOL     OW 1261   1.238   0.673   2.674 -0.1113 -0.1282 -0.0274
  316SOL    HW1 1262   1.303   0.603   2.666  0.6014 -0.0456 -1.9217
  316SOL    HW2 1263   1.234   0.686   2.772 -0.6877 -2.6914 -2.5714
  316SOL     MW 1264   1.246   0.665   2.686 -0.0933 -0.4555 -0.6130
  317SOL     OW 1265   0.647   1.386   2.567 -0.4961  0.2400  0.0858
  317SOL    HW1 1266   0.657   1.326   2.639 -2.3287  0.6703 -2.8186
  317SOL    HW2 1267   0.736   1.383   2.527 -3.2523  1.6217  0.0358
  317SOL     MW 1268   0.660   1.378   2.571 -1.1015  0.4791 -0.3040
  318SOL     OW 1269   1.271   0.339   2.909  0.0232 -0.3172 -0.4942
  318SOL    HW1 1270   1.192   0.404   2.914  1.1247 -1.6617  0.0380
  318SOL    HW2 1271   1.342   0.395   2.876  0.8861 -1.6414  0.3350
  318SOL     MW 1272   1.270   0.355   2.905  0.2824 -0.6693 -0.3146
  319SOL     OW 1273   0.816   0.407   2.745  0.2827 -0.1901  0.2060
  319SOL    HW1 1274   0.781   0.342   2.679 -1.2190 -0.2331  1.5962
  319SOL    HW2 1275   0.751   0.394   2.815 -1.5789  1.7865 -0.0610
  319SOL     MW 1276   0.803   0.397   2.746 -0.1611  0.0650  0.3542
  320SOL     OW 1277   1.010   1.322   2.024  0.0251  0.0519  0.0348
  320SOL    HW1 1278   1.072   1.257   2.066 -0.7444 -2.4680  2.0423
  320SOL    HW2 1279   1.059   1.383   1.965 -1.2677  0.5683 -2.7432
  320SOL     MW 1280   1.024   1.322   2.022 -0.2470 -0.2125 -0.0669
  321SOL     OW 1281   1.106   0.964   2.994 -0.4575 -0.4751  0.4302
  321SOL    HW1 1282   1.037   0.944   2.922  2.6169 -0.6729 -2.2729
  321SOL    HW2 1283   1.164   0.883   3.001 -2.3106 -0.7043  0.6585
  321SOL     MW 1284   1.105   0.950   2.985 -0.2964 -0.5314  0.1037
  322SOL     OW 1285   1.210   0.833   1.698 -0.3073 -0.7617 -0.0225
  322SOL    HW1 1286   1.290   0.788   1.719 -0.6402 -0.0136  1.0642
  322SOL    HW2 1287   1.195   0.878   1.780  1.2417  0.6362 -0.2413
  322SOL     MW 1288   1.219   0.833   1.712 -0.1469 -0.4785  0.0920
  323SOL     OW 1289   1.183   1.503   1.890 -0.1732  0.2994 -0.0865
  323SOL    HW1 1290   1.181   1.444   1.820 -1.6157 -1.9513 -0.9874
  323SOL    HW2 1291   1.119   1.575   1.860 -0.3372 -1.0512  1.7309
  323SOL     MW 1292   1.174   1.505   1.877 -0.3851 -0.1758  0.0344
  324SOL     OW 1293   1.490   1.083   2.492  0.5901 -0.1185 -0.4863
  324SOL    HW1 1294   1.393   1.096   2.524 -2.7969  1.2392 -0.7474
  324SOL    HW2 1295   1.530   1.135   2.561 -0.6773 -1.6035  2.1728
  324SOL     MW 1296   1.482   1.091   2.505 -0.0240 -0.1353 -0.1699
  325SOL     OW 1297   1.039   0.483   2.922  0.7564  0.0557 -0.1341
  325SOL    HW1 1298   0.999   0.543   2.981 -1.5663 -2.2606 -2.7783
  325SOL    HW2 1299   0.973   0.461   2.854 -1.5367 -1.1140  0.8316
  325SOL     MW 1300   1.025   0.488   2.921  0.1474 -0.4042 -0.3556
  326SOL     OW 1301   0.389   1.398   2.182  0.0522 -0.3759  0.3702
  326SOL    HW1 1302   0.447   1.395   2.111 -1.1124  1.3736 -0.6645
  326SOL    HW2 1303   0.402   1.480   2.233 -0.0937  1.8725  0.0851
  326SOL     MW 1304   0.398   1.408   2.179 -0.1207  0.1516  0.1961
  327SOL     OW 1305   1.906   0.818   2.417  0.2153  0.4590 -0.6275
  327SOL    HW1 1306   1.911   0.769   2.502  1.3187 -0.8655  0.8033
  327SOL    HW2 1307   1.997   0.848   2.407  0.6451  2.3780  2.8599
  327SOL     MW 1308   1.919   0.815   2.427  0.4176  0.5375  0.0214
  328SOL     OW 1309   0.114   1.337   2.180  0.1472 -0.5879  0.3098
  328SOL    HW1 1310   0.095   1.254   2.134  0.2235 -0.3080 -1.0374
  328SOL    HW2 1311   0.209   1.343   2.188 -0.7997  1.8522 -1.1360
  328SOL     MW 1312   0.124   1.327   2.175  0.0323 -0.2290 -0.0587
  329SOL     OW 1313   0.121   0.175   1.392 -0.5158 -0.2310  0.4658
  329SOL    HW1 1314   0.074   0.229   1.449  1.4775 -2.1523 -2.7073
  329SOL    HW2 1315   0.209   0.216   1.381 -0.8449  2.8599 -2.8338
  329SOL     MW 1316   0.126   0.187   1.398 -0.2962 -0.0766 -0.3882
  330SOL     OW 1317   0.400   2.958   2.086 -0.0333  0.3391 -0.4818
  330SOL    HW1 1318   0.457   3.006   2.148 -0.3606 -0.8555 -3.4175
  330SOL    HW2 1319   0.322   2.945   2.148 -0.1608 -0.9747  2.6710
  330SOL     MW 1320   0.397   2.963   2.103 -0.0933  0.0081 -0.4531
  331SOL     OW 1321   0.798   1.201   2.259  0.8862  0.1409  0.0586
  331SOL    HW1 1322   0.750   1.208   2.178 -0.6050 -1.9318 -2.6843
  331SOL    HW2 1323   0.808   1.294   2.276  0.6654  0.3247  1.8496
  331SOL     MW 1324   0.793   1.215   2.251  0.6603 -0.1083 -0.0670
  332SOL     OW 1325   1.421   1.743   2.963 -0.2121  0.3695  0.4029
  332SOL    HW1 1326   1.435   1.752   2.867  1.6660 -0.0002 -0.2025
  332SOL    HW2 1327   1.455   1.822   3.001  0.2332  0.0065 -0.9574
  332SOL     MW 1328   1.427   1.755   2.955  0.0945  0.2729  0.1435
  333SOL     OW 1329   1.733   1.494   3.017 -0.3271  0.0955  0.1090
  333SOL    HW1 1330   1.828   1.493   3.004 -1.1259  1.0110  0.6249
  333SOL    HW2 1331   1.707   1.428   3.083  0.5836  0.5101  1.7524
  333SOL     MW 1332   1.742   1.485   3.024 -0.3124  0.2710  0.3939
  334SOL     OW 1333   1.207   3.095   2.622  0.3194  0.2595  0.5504
  334SOL    HW1 1334   1.127   3.085   2.675  3.7391  1.1344 -2.1355
  334SOL    HW2 1335   1.246   3.180   2.646  0.2786 -0.2959  1.5351
  334SOL     MW 1336   1.202   3.105   2.632  0.7652  0.3016  0.3259
  335SOL     OW 1337   1.269   0.742   2.954 -0.0675  0.4302  0.6037
  335SOL    HW1 1338   1.287   0.719   3.045  2.0726 -1.4564  2.0159
  335SOL    HW2 1339   1.332   0.812   2.940  0.0270 -1.6488  1.7898
  335SOL     MW 1340   1.280   0.748   2.964  0.2273 -0.0930  0.9465
  336SOL     OW 1341   0.903   1.091   1.859 -0.5085  0.6267  0.3630
  336SOL    HW1 1342   0.915   1.173   1.901  0.3607  0.9550 -1.8726
  336SOL    HW2 1343   0.988   1.055   1.878  2.8903  0.1307  1.5881
  336SOL     MW 1344   0.916   1.097   1.867  0.0546  0.6046  0.2297
  337SOL     OW 1345   0.566   1.755   2.835 -0.7062  0.3601  0.4364
  337SOL    HW1 1346   0.511   1.756   2.755 -0.9754  0.0165 -2.5117
  337SOL    HW2 1347   0.658   1.730   2.800  1.0087  0.1524 -0.1938
  337SOL     MW 1348   0.571   1.752   2.819 -0.5155  0.2873 -0.0358
  338SOL     OW 1349   1.052   0.828   2.528 -0.0657  0.7014 -0.4763
  338SOL    HW1 1350   0.974   0.769   2.545 -1.0720 -0.7402 -3.0346
  338SOL    HW2 1351   1.122   0.804   2.590  3.5973  1.6884  1.6538
  338SOL     MW 1352   1.051   0.817   2.539  0.2848  0.6415 -0.5328
  339SOL     OW 1353   1.500   1.124   1.830  0.7121  0.4314  0.1415
  339SOL    HW1 1354   1.444   1.141   1.752  1.4315 -0.8120 -1.3501
  339SOL    HW2 1355   1.526   1.211   1.859 -2.3873 -1.3562  0.0744
  339SOL     MW 1356   1.496   1.138   1.823  0.3981  0.0315 -0.0642
  340SOL     OW 1357   1.323   1.589   0.066  0.4209  0.3980  0.0011
  340SOL    HW1 1358   1.355   1.635  -0.009 -1.2733  1.4837  1.9268
  340SOL    HW2 1359   1.395   1.618   0.130 -2.2295  0.6736  3.1327
  340SOL     MW 1360   1.337   1.599   0.064 -0.1523  0.5776  0.6684
  341SOL     OW 1361   0.171   1.332   2.676  0.3661  0.9553 -0.1609
  341SOL    HW1 1362   0.222   1.416   2.673  0.9904  1.8380 -2.0168
  341SOL    HW2 1363   0.128   1.320   2.591 -1.3587 -1.2571 -1.7401
  341SOL     MW 1364   0.172   1.342   2.664  0.2209  0.7798 -0.6141
  342SOL     OW 1365   1.414   0.292   0.091 -0.2430 -0.3638 -0.2813
  342SOL    HW1 1366   1.449   0.362   0.152  0.9082  3.2920 -1.0740
  342SOL    HW2 1367   1.447   0.330   0.012 -1.2073  0.1725 -0.3330
  342SOL     MW 1368   1.423   0.306   0.089 -0.2183  0.1893 -0.3927
  343SOL     OW 1369   0.185   0.297   2.325 -0.0461  0.3997 -0.1897
  343SOL    HW1 1370   0.202   0.218   2.377 -1.8323  0.0129  1.7871
  343SOL    HW2 1371   0.130   0.270   2.246  0.5035 -0.3213 -0.0699
  343SOL     MW 1372   0.180   0.283   2.321 -0.2093  0.2535  0.0869
  344SOL     OW 1373   1.718   2.160   0.135  0.2351  0.0202  0.4937
  344SOL    HW1 1374   1.754   2.220   0.070  0.1902 -2.8232  0.6995
  344SOL    HW2 1375   1.692   2.083   0.074 -3.4915 -1.7618  2.0027
  344SOL     MW 1376   1.720   2.158   0.118 -0.2625 -0.5901  0.7199
  345SOL     OW 1377   0.670   1.622   2.353  0.2095 -0.1731 -0.0632
  345SOL    HW1 1378   0.577   1.615   2.333 -1.0902 -0.4304 -0.6416
  345SOL    HW2 1379   0.715   1.554   2.297  1.9844  1.3439  1.0563
  345SOL     MW 1380   0.663   1.612   2.343  0.2722 -0.0069  0.0082
  346SOL     OW 1381   1.688   1.042   0.005  0.7038 -0.2382  0.5034
  346SOL    HW1 1382   1.781   1.052   0.002 -0.7109  0.9264 -1.2030
  346SOL    HW2 1383   1.655   0.980   0.074 -0.6133  2.6078  2.2382
  346SOL     MW 1384   1.696   1.035   0.014  0.3433  0.2909  0.5072
  347SOL     OW 1385   1.182   0.622   2.372 -0.1639 -0.2737  0.3085
  347SOL    HW1 1386   1.281   0.606   2.387  0.5256 -1.3988 -0.1635
  347SOL    HW2 1387   1.161   0.703   2.414  1.0603 -2.6130  0.2836
  347SOL     MW 1388   1.192   0.631   2.379  0.0886 -0.7308  0.2429
  348SOL     OW 1389   1.366   2.637   1.865 -0.0396 -0.1744  0.5805
  348SOL    HW1 1390   1.413   2.553   1.902  0.2189 -3.1044 -0.7356
  348SOL    HW2 1391   1.412   2.703   1.921  0.4076  0.0787 -0.7738
  348SOL     MW 1392   1.379   2.635   1.877  0.0535 -0.5276  0.2282
  349SOL     OW 1393   1.364   0.199   2.685  0.0951  0.3447 -0.0627
  349SOL    HW1 1394   1.310   0.228   2.762  0.2951  4.7981 -1.8212
  349SOL    HW2 1395   1.447   0.158   2.721 -0.2768 -1.3474  1.1162
  349SOL     MW 1396   1.367   0.197   2.700  0.0725  0.7090 -0.1392
  350SOL     OW 1397   1.862   0.673   2.645  0.5124  0.3948 -0.0815
  350SOL    HW1 1398   1.816   0.619   2.578 -2.1509 -0.2095  0.2041
  350SOL    HW2 1399   1.951   0.633   2.656  0.8967 -2.3099  0.0255
  350SOL     MW 1400   1.868   0.661   2.638  0.2117 -0.0418 -0.0297
  351SOL     OW 1401   3.093   0.930   1.571 -0.3861 -0.5813  0.2645
  351SOL    HW1 1402   3.019   0.963   1.622 -0.7479  0.8865 -0.6079
  351SOL    HW2 1403   3.148   1.009   1.563  0.5039 -0.0385  2.5912
  351SOL     MW 1404   3.090   0.945   1.577 -0.3164 -0.3160  0.4564
  352SOL     OW 1405   0.773   1.598   2.757 -0.0570  0.2157  0.1084
  352SOL    HW1 1406   0.816   1.575   2.849  4.6866 -0.1894  1.9852
  352SOL    HW2 1407   0.771   1.519   2.709 -1.2358  2.1496 -0.2216
  352SOL     MW 1408   0.778   1.585   2.763  0.4134  0.4174  0.3125
  353SOL     OW 1409   3.050   2.412   2.752 -0.1982 -0.4248 -0.1364
  353SOL    HW1 1410   3.140   2.386   2.746 -0.6504 -0.3904  3.2489
  353SOL    HW2 1411   3.036   2.499   2.710 -0.6047 -1.2732 -1.7193
  353SOL     MW 1412   3.060   2.420   2.745 -0.3115 -0.5322  0.1014
  354SOL     OW 1413   0.406   2.416   0.882  0.2900 -0.3527  0.2454
  354SOL    HW1 1414   0.437   2.403   0.975  0.2676  0.3004 -1.3646
  354SOL    HW2 1415   0.326   2.360   0.873 -1.6832 -0.8505 -2.2714
  354SOL     MW 1416   0.399   2.407   0.893  0.0267 -0.3322 -0.2991
  355SOL     OW 1417   0.082   2.258   0.367  0.1414  0.4320  0.3719
  355SOL    HW1 1418  -0.003   2.213   0.355 -0.5700 -2.6896  0.0763
  355SOL    HW2 1419   0.070   2.295   0.455  0.9572 -3.6499  0.5349
  355SOL     MW 1420   0.069   2.257   0.377  0.1552 -0.5184  0.3544
  356SOL     OW 1421   0.780   2.978   0.994  0.3849  0.5816  0.3841
  356SOL    HW1 1422   0.859   2.946   0.949  1.4699 -1.9983 -0.5603
  356SOL    HW2 1423   0.709   2.924   0.952  1.6783  1.8512  0.2714
  356SOL     MW 1424   0.781   2.967   0.983  0.6987  0.4087  0.2447
  357SOL     OW 1425   1.813   2.956   0.360  0.2204 -0.3578 -0.1158
  357SOL    HW1 1426   1.781   2.886   0.413 -0.8397 -1.3935  0.2287
  357SOL    HW2 1427   1.899   2.916   0.344 -1.1784  0.6062  1.1178
  357SOL     MW 1428   1.820   2.942   0.365 -0.1040 -0.3673  0.0924
  358SOL     OW 1429   0.448   0.178   1.067 -0.6376  0.2892 -0.0590
  358SOL    HW1 1430   0.539   0.157   1.024  2.6580  0.4358 -2.0122
  358SOL    HW2 1431   0.395   0.201   0.991 -1.3610 -1.1804 -1.2950
  358SOL     MW 1432   0.453   0.178   1.051 -0.2982  0.1146 -0.4798
  359SOL     OW 1433   0.949   2.773   1.879  0.8585 -0.0285 -0.7216
  359SOL    HW1 1434   0.937   2.709   1.944  3.7777  3.0681 -1.1807
  359SOL    HW2 1435   1.014   2.731   1.826  1.0531 -2.6339  1.1105
  359SOL     MW 1436   0.956   2.759   1.881  1.2693  0.0363 -0.5405
  360SOL     OW 1437   0.578   2.773   0.910  0.7332  0.0321  0.3311
  360SOL    HW1 1438   0.579   2.701   0.848  0.7196 -0.6077 -0.2311
  360SOL    HW2 1439   0.586   2.719   0.994  0.6610  1.5235  0.8263
  360SOL     MW 1440   0.579   2.757   0.913  0.7218  0.1445  0.3222
  361SOL     OW 1441   0.179   2.769   1.375 -0.4640 -0.0226 -0.3200
  361SOL    HW1 1442   0.167   2.855   1.409 -0.6499 -4.3629  1.2897
  361SOL    HW2 1443   0.276   2.749   1.375  0.3998  3.6182 -3.7142
  361SOL     MW 1444   0.190   2.778   1.380 -0.3745 -0.1149 -0.5554
  362SOL     OW 1445   1.489   2.396   0.592 -0.3309 -0.0669  0.0987
  362SOL    HW1 1446   1.500   2.304   0.626 -0.6511 -1.5143 -1.2533
  362SOL    HW2 1447   1.492   2.460   0.666  0.5130 -1.4164 -0.1736
  362SOL     MW 1448   1.491   2.393   0.606 -0.2618 -0.4359 -0.1156
  363SOL     OW 1449   0.213   3.020   0.721 -0.2318  0.0471  0.2600
  363SOL    HW1 1450   0.217   2.956   0.789 -0.9535  2.2041 -2.5967
  363SOL    HW2 1451   0.146   2.994   0.661 -0.9486  1.0831  2.2768
  363SOL     MW 1452   0.205   3.008   0.722 -0.4216  0.4684  0.1492
  364SOL     OW 1453   0.738   0.194   0.188 -0.2752  0.3293 -0.6450
  364SOL    HW1 1454   0.700   0.111   0.164 -0.7610 -1.4043 -0.3895
  364SOL    HW2 1455   0.660   0.256   0.200  0.9096  0.9020  0.1915
  364SOL     MW 1456   0.722   0.191   0.186 -0.1830  0.1761 -0.5009
  365SOL     OW 1457   0.987   1.976   1.149 -0.2669 -0.1141 -0.8255
  365SOL    HW1 1458   0.999   2.059   1.111  0.1427 -1.4741 -0.4327
  365SOL    HW2 1459   0.950   1.925   1.081 -1.6926  0.1608 -1.6734
  365SOL     MW 1460   0.984   1.980   1.135 -0.4009 -0.2573 -0.8856
  366SOL     OW 1461   2.861   2.671   1.029  0.1342  0.5186  0.3181
  366SOL    HW1 1462   2.944   2.647   1.084  0.3879  0.6613  1.9443
  366SOL    HW2 1463   2.896   2.676   0.938  1.5416 -0.2877 -0.1287
  366SOL     MW 1464   2.876   2.668   1.024  0.3534  0.4311  0.4737
  367SOL     OW 1465   1.278   2.907   0.890  0.3274 -0.0062  0.3870
  367SOL    HW1 1466   1.206   2.975   0.874  0.3102 -2.0033  1.1934
  367SOL    HW2 1467   1.273   2.849   0.811  2.3340 -0.7863 -1.6538
  367SOL     MW 1468   1.268   2.908   0.878  0.5899 -0.3726  0.2242
  368SOL     OW 1469   1.689   0.450   0.662  0.0496  0.1080  0.4104
  368SOL    HW1 1470   1.765   0.392   0.648  0.7723  0.7467  0.4913
  368SOL    HW2 1471   1.719   0.538   0.656  0.9533  2.0804 -3.8601
  368SOL     MW 1472   1.703   0.454   0.659  0.2642  0.4525 -0.1424
  369SOL     OW 1473   0.138   2.477   1.751 -0.5280  0.1468  0.0662
  369SOL    HW1 1474   0.235   2.459   1.764 -0.1882  0.2023  0.8425
  369SOL    HW2 1475   0.125   2.564   1.771 -2.0945 -0.7909 -1.2959
  369SOL     MW 1476   0.149   2.486   1.755 -0.6899  0.0304 -0.0111
  370SOL     OW 1477   0.662   0.116   0.929  0.2589 -0.0969  0.7005
  370SOL    HW1 1478   0.740   0.178   0.922  1.2308  0.5445  1.0394
  370SOL    HW2 1479   0.704   0.037   0.974 -1.1041 -1.1929  2.8117
  370SOL     MW 1480   0.678   0.114   0.934  0.2073 -0.1569  1.0237
  371SOL     OW 1481   1.337   2.977   1.524  0.1421  0.3476  0.4922
  371SOL    HW1 1482   1.261   2.914   1.516 -0.6409 -1.0792 -0.3026
  371SOL    HW2 1483   1.330   3.029   1.445 -3.2725 -1.6579  1.3421
  371SOL     MW 1484   1.326   2.976   1.513 -0.4117 -0.1053  0.4995
  372SOL     OW 1485   0.796   2.269   0.499  0.2525 -0.1284  0.1486
  372SOL    HW1 1486   0.763   2.179   0.519  0.9493 -2.9388  0.0754
  372SOL    HW2 1487   0.812   2.252   0.406 -1.8517 -3.2310  1.7719
  372SOL     MW 1488   0.793   2.255   0.489  0.0668 -0.9086  0.3531
  373SOL     OW 1489   2.819   3.003   1.404  0.5220  0.4765 -0.7922
  373SOL    HW1 1490   2.882   2.974   1.335  0.9341  1.9970  0.0288
  373SOL    HW2 1491   2.780   3.082   1.364 -0.0382  1.4559  1.8062
  373SOL     MW 1492   2.822   3.010   1.390  0.5024  0.8063 -0.3410
  374SOL     OW 1493   1.486   0.514   0.231  0.3295  0.6551 -0.3883
  374SOL    HW1 1494   1.566   0.550   0.207 -0.1835  0.5345  1.6979
  374SOL    HW2 1495   1.507   0.482   0.318 -3.6543  3.7182  1.1800
  374SOL     MW 1496   1.499   0.515   0.240 -0.2638  1.0434  0.0939
  375SOL     OW 1497   1.129   2.098   2.257  0.4884  0.1390  0.6076
  375SOL    HW1 1498   1.154   2.151   2.338  1.1977  2.3399 -0.0541
  375SOL    HW2 1499   1.109   2.003   2.289 -0.3656 -0.0468  0.9262
  375SOL     MW 1500   1.130   2.092   2.272  0.4693  0.4049  0.5623
  376SOL     OW 1501   0.697   2.545   0.132  0.0447  0.0273  0.1011
  376SOL    HW1 1502   0.705   2.465   0.192 -0.6891  0.7102  2.0165
  376SOL    HW2 1503   0.642   2.512   0.060  0.9777 -1.7603 -1.4213
  376SOL     MW 1504   0.691   2.530   0.131  0.0709 -0.1184  0.1530
  377SOL     OW 1505   1.233   2.071   0.945 -0.4067  0.3627 -0.0472
  377SOL    HW1 1506   1.179   2.035   0.872 -2.8148 -3.1001  2.3552
  377SOL    HW2 1507   1.260   1.988   0.984 -2.6978  2.1355 -0.8194
  377SOL     MW 1508   1.229   2.055   0.941 -1.0267  0.1397  0.1679
  378SOL     OW 1509   0.970   2.812   1.488 -0.5115 -0.3823  0.3327
  378SOL    HW1 1510   0.919   2.733   1.516 -0.2701 -1.9076 -0.7219
  378SOL    HW2 1511   0.929   2.849   1.406  3.1692  0.8570 -1.9054
  378SOL     MW 1512   0.958   2.807   1.481  0.0060 -0.4200 -0.1018
  379SOL     OW 1513   1.046   1.846   2.317  0.1231 -0.2721 -0.3203
  379SOL    HW1 1514   0.952   1.846   2.295 -1.1150 -1.0407 -0.5217
  379SOL    HW2 1515   1.076   1.764   2.279  1.9715 -1.7438 -0.7249
  379SOL     MW 1516   1.037   1.835   2.309  0.2037 -0.5677 -0.4003
  380SOL     OW 1517   0.872   0.217   1.555 -0.1999  0.0203 -0.0546
  380SOL    HW1 1518   0.894   0.157   1.478 -0.3187 -2.7427 -1.9151
  380SOL    HW2 1519   0.950   0.215   1.609  1.1151  0.5541  1.2656
  380SOL     MW 1520   0.885   0.209   1.552 -0.0420 -0.2738 -0.1259
  381SOL     OW 1521   0.833   2.026   0.805 -0.5512 -0.2368 -0.2381
  381SOL    HW1 1522   0.922   2.006   0.771 -2.1385  0.4444 -0.8231
  381SOL    HW2 1523   0.840   2.103   0.865 -0.9648 -0.1157  1.3701
  381SOL     MW 1524   0.846   2.033   0.808 -0.8152 -0.1309 -0.1031
  382SOL     OW 1525   0.685   0.041   0.645  0.2172  0.0951  0.4520
  382SOL    HW1 1526   0.655   0.045   0.735 -2.9615 -2.5536 -0.4389
  382SOL    HW2 1527   0.667  -0.048   0.611  2.5335  1.4727  0.9596
  382SOL     MW 1528   0.679   0.030   0.652  0.1034 -0.0726  0.4014
  383SOL     OW 1529   0.497   0.013   0.347 -0.1795 -0.2766  0.1057
  383SOL    HW1 1530   0.504   0.042   0.442  1.5163  0.2928 -0.8575
  383SOL    HW2 1531   0.406  -0.016   0.339  3.4512 -0.4304  1.2312
  383SOL     MW 1532   0.486   0.013   0.358  0.5233 -0.2218  0.1271
  384SOL     OW 1533   0.600   2.867   0.581 -0.5125  0.3939 -0.1112
  384SOL    HW1 1534   0.601   2.778   0.622 -0.7329  0.1796 -1.6498
  384SOL    HW2 1535   0.517   2.864   0.532  2.1109  1.9794  1.3099
  384SOL     MW 1536   0.589   2.855   0.580 -0.1954  0.5748 -0.1267
  385SOL     OW 1537   1.332   2.064   1.568  0.8856 -0.0650  0.0034
  385SOL    HW1 1538   1.412   2.080   1.624  1.4997  1.3780  0.9642
  385SOL    HW2 1539   1.311   1.968   1.573 -3.0969  0.6651 -0.7828
  385SOL     MW 1540   1.340   2.053   1.576  0.4412  0.2217  0.0265
  386SOL     OW 1541   1.357   0.437   0.893  0.3104 -0.4036  0.1970
  386SOL    HW1 1542   1.281   0.384   0.859 -2.1175  0.5237 -2.1363
  386SOL    HW2 1543   1.322   0.453   0.981 -0.6865  0.9526 -0.4335
  386SOL     MW 1544   1.342   0.432   0.901 -0.1415 -0.1023 -0.1941
  387SOL     OW 1545   0.898   2.157   1.467 -0.2866 -0.4710 -0.1986
  387SOL    HW1 1546   0.948   2.205   1.401 -2.2905 -2.3953  1.1561
  387SOL    HW2 1547   0.933   2.062   1.459 -0.0008 -3.1969 -0.4472
  387SOL     MW 1548   0.909   2.151   1.457 -0.5133 -1.0846 -0.0526
  388SOL     OW 1549   1.559   2.853   1.182 -0.4324 -0.3830 -0.2749
  388SOL    HW1 1550   1.484   2.808   1.150 -0.9838  0.0851 -1.8204
  388SOL    HW2 1551   1.637   2.814   1.142 -0.0579 -0.6878 -0.3741
  388SOL     MW 1552   1.560   2.842   1.172 -0.4557 -0.3615 -0.4919
  389SOL     OW 1553   0.410   0.162   3.096 -0.4835  0.9141  0.6179
  389SOL    HW1 1554   0.481   0.110   3.054 -0.6203  0.1901 -1.4739
  389SOL    HW2 1555   0.333   0.112   3.089 -2.6904  0.4264 -2.5483
  389SOL     MW 1556   0.410   0.149   3.090 -0.7928  0.7542 -0.0758
  390SOL     OW 1557   1.380   0.061   0.627 -0.3103 -0.0451 -1.0845
  390SOL    HW1 1558   1.469   0.073   0.595 -1.6368  1.2436 -2.9809
  390SOL    HW2 1559   1.383   0.096   0.718 -0.1686 -2.3590  0.7171
  390SOL     MW 1560   1.392   0.067   0.634 -0.4666 -0.1804 -1.0970
  391SOL     OW 1561   0.262   2.310   1.433 -0.4171 -0.1936  0.4780
  391SOL    HW1 1562   0.228   2.239   1.495  0.6788 -2.0855  1.0042
  391SOL    HW2 1563   0.200   2.382   1.444  0.3886  0.5760 -1.5104
  391SOL     MW 1564   0.249   2.310   1.443 -0.1662 -0.3417  0.2851
  392SOL     OW 1565   1.975   2.170   0.308 -0.0412 -0.7136  0.2247
  392SOL    HW1 1566   1.913   2.240   0.346  1.1564  1.4951 -0.5472
  392SOL    HW2 1567   2.039   2.144   0.380  0.1002  0.2858  1.3166
  392SOL     MW 1568   1.975   2.176   0.323  0.1354 -0.2904  0.2669
  393SOL     OW 1569   0.207   3.024   2.930  0.4676 -0.1346 -0.4140
  393SOL    HW1 1570   0.269   3.093   2.915 -1.5526 -2.5090  0.3875
  393SOL    HW2 1571   0.123   3.052   2.889 -0.5986 -1.2704  2.1014
  393SOL     MW 1572   0.204   3.037   2.923  0.0604 -0.5977  0.0236
  394SOL     OW 1573   0.838   1.647   1.434 -0.3270  0.2514 -0.3563
  394SOL    HW1 1574   0.811   1.652   1.530  1.3811 -3.9127  1.8521
  394SOL    HW2 1575   0.857   1.734   1.407 -1.2508 -4.0698  1.7360
  394SOL     MW 1576   0.837   1.659   1.443 -0.2235 -0.8681  0.2111
  395SOL     OW 1577   0.935   2.884   2.584 -0.2558  0.6372 -0.5732
  395SOL    HW1 1578   0.945   2.948   2.658 -3.8497  2.9908  1.5050
  395SOL    HW2 1579   1.028   2.858   2.567  1.0897  1.3906  0.0595
  395SOL     MW 1580   0.949   2.889   2.591 -0.5524  1.0471 -0.2155
  396SOL     OW 1581   0.764   1.867   2.375  0.2221  0.4937  0.5133
  396SOL    HW1 1582   0.797   1.860   2.464  1.4249 -0.4498 -0.8269
  396SOL    HW2 1583   0.729   1.776   2.363  0.7035 -0.6394 -0.6811
  396SOL     MW 1584   0.763   1.854   2.385  0.4443  0.2197  0.1789
  397SOL     OW 1585   1.020   2.354   1.315 -0.2555 -0.1038  0.4406
  397SOL    HW1 1586   1.049   2.418   1.244  0.3871 -0.1146  0.4741
  397SOL    HW2 1587   1.088   2.342   1.386  2.8583  0.5121  1.1273
  397SOL     MW 1588   1.032   2.361   1.315  0.2401 -0.0240  0.5356
  398SOL     OW 1589   0.584   2.600   0.687  0.7525  0.3850  0.4215
  398SOL    HW1 1590   0.514   2.533   0.659  1.0279 -3.3856  0.4016
  398SOL    HW2 1591   0.664   2.569   0.648  0.2117 -1.3631 -2.3334
  398SOL     MW 1592   0.586   2.587   0.678  0.7175 -0.3432  0.0554
  399SOL     OW 1593   0.281   2.062   0.350  0.2690  0.0071  0.0450
  399SOL    HW1 1594   0.215   2.127   0.356  1.9856 -2.3351  3.5656
  399SOL    HW2 1595   0.344   2.082   0.280 -1.5005  0.9979  2.6398
  399SOL     MW 1596   0.281   2.073   0.342  0.2620 -0.1712  0.8519
  400SOL     OW 1597   0.626   1.848   0.186  0.0808  0.2230 -0.2831
  400SOL    HW1 1598   0.592   1.938   0.181  2.3852  0.6562  0.3458
  400SOL    HW2 1599   0.567   1.790   0.238 -2.0612  1.2353 -0.2856
  400SOL     MW 1600   0.614   1.852   0.192  0.1022  0.4137 -0.2005
  401SOL     OW 1601   1.028   2.097   0.047 -0.3220 -0.1052 -0.2217
  401SOL    HW1 1602   1.013   2.002   0.048 -1.4352 -2.9547  1.3467
  401SOL    HW2 1603   1.072   2.101   0.137  0.9444  0.5462 -0.3810
  401SOL     MW 1604   1.032   2.085   0.059 -0.3018 -0.3952 -0.0358
  402SOL     OW 1605   0.697   2.824   1.716  0.3201  0.8751  0.0745
  402SOL    HW1 1606   0.628   2.822   1.786  1.0602  0.1388  1.0868
  402SOL    HW2 1607   0.781   2.841   1.756 -1.4601  0.6778  0.0039
  402SOL     MW 1608   0.699   2.826   1.730  0.1829  0.7520  0.1987
  403SOL     OW 1609   0.053   0.556   0.364 -0.5083 -0.0866  0.5946
  403SOL    HW1 1610   0.139   0.569   0.404  1.7656  0.0103  0.7765
  403SOL    HW2 1611   0.068   0.480   0.298  0.3204 -3.8546  1.8138
  403SOL     MW 1612   0.066   0.547   0.360 -0.0989 -0.5710  0.7795
  404SOL     OW 1613   0.975   2.889   0.838 -0.1765  0.0321 -0.4740
  404SOL    HW1 1614   1.049   2.843   0.792 -0.2914  1.2175  0.0104
  404SOL    HW2 1615   0.973   2.978   0.798 -1.1627 -1.3216 -0.6113
  404SOL     MW 1616   0.984   2.895   0.827 -0.3218  0.0099 -0.4282
  405SOL     OW 1617   0.467   2.459   1.555  0.2069  0.0215  0.0870
  405SOL    HW1 1618   0.475   2.547   1.526  0.2495  1.3100 -2.3949
  405SOL    HW2 1619   0.398   2.428   1.489  1.6792  1.0845  1.4302
  405SOL     MW 1620   0.459   2.467   1.542  0.4068  0.3317 -0.0632
  406SOL     OW 1621   0.417   2.401   1.151 -0.2757 -0.5433 -0.3361
  406SOL    HW1 1622   0.321   2.402   1.144  0.3666  1.7815  0.4793
  406SOL    HW2 1623   0.436   2.324   1.212  2.5273 -2.1798  1.3230
  406SOL     MW 1624   0.407   2.391   1.158  0.1788 -0.4525 -0.0096
  407SOL     OW 1625   0.006   2.676   1.165  0.5694 -0.1385 -0.1482
  407SOL    HW1 1626   0.051   2.693   1.245 -4.5456  1.9619 -2.8960
  407SOL    HW2 1627   0.072   2.678   1.099 -2.2878 -0.9065 -1.2910
  407SOL     MW 1628   0.021   2.679   1.167 -0.4825  0.0373 -0.6615
  408SOL     OW 1629   2.114   2.126   0.550  0.3401  1.0974  0.2805
  408SOL    HW1 1630   2.105   2.210   0.595 -1.4606 -1.0522 -0.0095
  408SOL    HW2 1631   2.033   2.072   0.586 -3.4195 -1.1791 -0.6757
  408SOL     MW 1632   2.102   2.130   0.561 -0.3935  0.5134  0.1161
  409SOL     OW 1633   1.381   0.141   0.885  0.0777 -0.3859  0.2348
  409SOL    HW1 1634   1.426   0.220   0.904 -0.5384 -3.4716  1.9615
  409SOL    HW2 1635   1.426   0.069   0.933 -2.0846 -1.7581  0.7881
  409SOL     MW 1636   1.393   0.142   0.894 -0.2889 -0.9741  0.5356
  410SOL     OW 1637   1.083   2.492   1.079  0.1416 -0.1925  0.0799
  410SOL    HW1 1638   1.012   2.484   1.019  2.7236 -0.3199  0.6569
  410SOL    HW2 1639   1.153   2.443   1.029 -1.2730  2.0520 -2.8218
  410SOL     MW 1640   1.083   2.484   1.064  0.2956  0.0868 -0.2268
  411SOL     OW 1641   1.957   0.117   2.847  0.6787  0.8288 -0.5040
  411SOL    HW1 1642   1.909   0.060   2.784 -0.9716  2.5421 -1.6594
  411SOL    HW2 1643   1.897   0.136   2.921 -0.3957  0.8713  0.3199
  411SOL     MW 1644   1.943   0.112   2.848  0.3192  1.0604 -0.5477
  412SOL     OW 1645   1.072   2.212   0.556  0.4823  0.0282  0.1087
  412SOL    HW1 1646   1.119   2.294   0.588  4.3466 -1.9679 -0.3482
  412SOL    HW2 1647   0.980   2.239   0.559  0.4000  0.2192 -0.3912
  412SOL     MW 1648   1.066   2.226   0.561  0.9813 -0.2100 -0.0175
  413SOL     OW 1649   0.549   2.787   0.172 -0.1346  0.2838  0.4409
  413SOL    HW1 1650   0.609   2.706   0.178  0.2645 -2.2047 -1.3535
  413SOL    HW2 1651   0.572   2.824   0.083  0.9385 -1.5169  0.3991
  413SOL     MW 1652   0.560   2.781   0.161  0.0597 -0.2821  0.1986
  414SOL     OW 1653   2.001   3.021   1.038 -0.2715  0.0947  0.5393
  414SOL    HW1 1654   1.929   2.979   0.981  3.7854 -0.9864 -0.1919
  414SOL    HW2 1655   2.060   2.948   1.051 -0.9055 -1.8440  0.3536
  414SOL     MW 1656   1.999   3.006   1.032  0.1801 -0.3037  0.4183
  415SOL     OW 1657   1.756   2.692   1.067 -0.1437  0.0104 -0.1560
  415SOL    HW1 1658   1.692   2.641   1.114 -0.2819 -0.5687 -0.8036
  415SOL    HW2 1659   1.818   2.723   1.135 -0.8814 -1.7384 -1.1859
  415SOL     MW 1660   1.756   2.690   1.082 -0.2593 -0.2968 -0.3774
  416SOL     OW 1661   0.607   1.937   1.368  0.0073 -0.0388 -0.0398
  416SOL    HW1 1662   0.556   2.016   1.342 -0.4526  0.5635  0.5503
  416SOL    HW2 1663   0.599   1.876   1.290 -0.3086 -1.1314 -0.1858
  416SOL     MW 1664   0.600   1.939   1.354 -0.0951 -0.1035  0.0188
  417SOL     OW 1665   1.071   3.016   1.964 -1.1512  0.2698  0.3708
  417SOL    HW1 1666   1.020   3.025   2.046 -1.4556 -0.0925  1.8621
  417SOL    HW2 1667   1.028   2.931   1.940 -0.0717 -0.1012 -1.1236
  417SOL     MW 1668   1.058   3.006   1.972 -1.0489  0.1730  0.3704
  418SOL     OW 1669   0.737   2.998   0.193  0.0920 -0.2793  0.0049
  418SOL    HW1 1670   0.793   2.948   0.130 -2.1479  0.2135 -0.9960
  418SOL    HW2 1671   0.646   2.967   0.200  0.0230  0.7333  0.2903
  418SOL     MW 1672   0.733   2.987   0.186 -0.2126 -0.0807 -0.0895
  419SOL     OW 1673   0.442   2.694   1.399  0.0275  0.2445  0.0653
  419SOL    HW1 1674   0.502   2.765   1.434 -0.6331 -0.1841  1.0913
  419SOL    HW2 1675   0.483   2.662   1.317  1.4633  1.3037 -1.0142
  419SOL     MW 1676   0.455   2.700   1.393  0.1298  0.3277  0.0582
  420SOL     OW 1677   0.913   2.219   1.019  0.0264 -0.5685  0.2467
  420SOL    HW1 1678   0.839   2.220   1.080 -1.2673  1.9991  0.0848
  420SOL    HW2 1679   0.889   2.294   0.964 -0.0549 -0.4258  1.6345
  420SOL     MW 1680   0.900   2.229   1.019 -0.1550 -0.2109  0.4085
  421SOL     OW 1681   2.935   0.109   0.040 -0.0714 -0.6727 -0.5746
  421SOL    HW1 1682   2.903   0.123  -0.047  2.2158  0.2145  3.0558
  421SOL    HW2 1683   2.954   0.017   0.056 -2.6986 -0.2611 -0.4423
  421SOL     MW 1684   2.933   0.098   0.031 -0.1163 -0.5013 -0.0782
  422SOL     OW 1685   0.872   2.462   0.875 -0.0918 -0.0521 -0.5479
  422SOL    HW1 1686   0.790   2.506   0.902  0.0416  0.4675 -0.6519
  422SOL    HW2 1687   0.902   2.501   0.790 -0.8061 -0.3099  2.7322
  422SOL     MW 1688   0.865   2.473   0.868 -0.1684 -0.0175 -0.1289
  423SOL     OW 1689   1.604   0.134   0.503 -0.3014  0.5179 -0.1075
  423SOL    HW1 1690   1.602   0.109   0.412  0.7393 -1.5257  0.9345
  423SOL    HW2 1691   1.563   0.217   0.497 -0.2843 -1.5059 -0.7027
  423SOL     MW 1692   1.598   0.142   0.490 -0.1618 -0.0187 -0.0486
  424SOL     OW 1693   0.741   2.197   1.237  0.1101  0.2396  0.7310
  424SOL    HW1 1694   0.646   2.212   1.251 -1.7755  0.6373 -2.5822
  424SOL    HW2 1695   0.781   2.178   1.321  1.7767  0.3585 -0.6578
  424SOL     MW 1696   0.734   2.196   1.250  0.0812  0.3077  0.1106
  425SOL     OW 1697   1.734   2.842   2.037  0.1231  0.4952 -0.0940
  425SOL    HW1 1698   1.730   2.825   1.941  0.7740  1.3148 -1.3678
  425SOL    HW2 1699   1.748   2.756   2.077 -0.0812  2.3989 -0.8488
  425SOL     MW 1700   1.736   2.828   2.030  0.1820  0.8545 -0.3617
  426SOL     OW 1701   0.738   1.598   1.914 -0.1230  0.4646  0.2520
  426SOL    HW1 1702   0.717   1.609   1.822  0.1351  3.7581 -1.3850
  426SOL    HW2 1703   0.708   1.685   1.950  0.3194 -0.7923  3.3262
  426SOL     MW 1704   0.731   1.611   1.906 -0.0305  0.7333  0.4417
  427SOL     OW 1705   0.378   1.548   1.852  0.2035 -0.0424  0.1760
  427SOL    HW1 1706   0.431   1.475   1.826 -0.5659  3.7382  1.2491
  427SOL    HW2 1707   0.302   1.496   1.881  1.6498 -2.1771 -0.2490
  427SOL     MW 1708   0.375   1.532   1.852  0.2928  0.1747  0.2615
  428SOL     OW 1709   0.591   2.634   1.163  0.1691  0.2386 -0.6474
  428SOL    HW1 1710   0.664   2.595   1.220 -0.0799 -0.7077  3.0841
  428SOL    HW2 1711   0.546   2.549   1.146 -2.4933  1.7252  0.0129
  428SOL     MW 1712   0.595   2.617   1.168 -0.2150  0.3099 -0.0679
  429SOL     OW 1713   1.326   2.706   1.047 -0.1091  0.0710  0.2762
  429SOL    HW1 1714   1.240   2.677   1.077 -1.3550 -2.7978 -0.7197
  429SOL    HW2 1715   1.314   2.783   0.990  0.5543 -2.1836  0.6486
  429SOL     MW 1716   1.313   2.712   1.043 -0.1860 -0.6050  0.1939
  430SOL     OW 1717   1.169   2.741   0.703  0.2526 -0.4920 -0.1965
  430SOL    HW1 1718   1.214   2.661   0.723  0.4814 -0.4147  1.2694
  430SOL    HW2 1719   1.132   2.738   0.612  1.8097 -1.0332 -0.4460
  430SOL     MW 1720   1.170   2.730   0.693  0.4882 -0.5532 -0.0360
  431SOL     OW 1721   0.351   1.971   1.131 -0.3869 -1.1819  0.4188
  431SOL    HW1 1722   0.430   1.924   1.114  0.4536  3.6556  0.1110
  431SOL    HW2 1723   0.314   1.997   1.045 -2.2897  2.0272  0.7524
  431SOL     MW 1724   0.357   1.968   1.118 -0.5270 -0.1202  0.4222
  432SOL     OW 1725   0.101   0.019   1.145 -0.7343 -0.2007  0.3447
  432SOL    HW1 1726   0.110   0.054   1.229 -0.7212 -0.7758 -0.8983
  432SOL    HW2 1727   0.033  -0.043   1.147 -1.6530  1.8381 -1.5000
  432SOL     MW 1728   0.093   0.016   1.156 -0.8538 -0.0076 -0.0627
  433SOL     OW 1729   0.656   2.872   1.463  0.4324 -0.0506  0.1693
  433SOL    HW1 1730   0.673   2.865   1.558 -0.1556  0.9146 -1.3328
  433SOL    HW2 1731   0.731   2.917   1.422 -2.8496 -1.5496 -1.3761
  433SOL     MW 1732   0.668   2.877   1.470 -0.0782 -0.1210 -0.2328
  434SOL     OW 1733   1.556   2.811   1.495 -0.1341 -0.1924 -0.0767
  434SOL    HW1 1734   1.475   2.864   1.503  1.5104 -1.9102 -0.5067
  434SOL    HW2 1735   1.569   2.812   1.401 -3.0341 -0.9566 -1.5507
  434SOL     MW 1736   1.547   2.818   1.483 -0.2998 -0.5199 -0.3279
  435SOL     OW 1737   2.853   1.806   0.231  0.3680 -0.3437 -0.1420
  435SOL    HW1 1738   2.908   1.870   0.183  0.7700  1.7158  1.5648
  435SOL    HW2 1739   2.850   1.729   0.178  2.0818  1.5163  0.4438
  435SOL     MW 1740   2.860   1.804   0.218  0.6472  0.1735  0.1605
  436SOL     OW 1741   1.451   2.784   0.312  0.1150 -0.0709  0.0956
  436SOL    HW1 1742   1.515   2.777   0.389  1.7458  0.7341 -2.1402
  436SOL    HW2 1743   1.398   2.862   0.330 -1.9470 -2.3292 -0.5902
  436SOL     MW 1744   1.452   2.794   0.324  0.0581 -0.2626 -0.2899
  437SOL     OW 1745   0.858   2.953   1.271  0.7016 -0.3135  0.2452
  437SOL    HW1 1746   0.911   3.035   1.284 -0.3109  3.2632  1.9048
  437SOL    HW2 1747   0.823   2.956   1.180 -0.6643  1.2816  1.0922
  437SOL     MW 1748   0.860   2.964   1.261  0.3878  0.3688  0.5759
  438SOL     OW 1749   0.844   2.530   2.016  0.4624  0.2535 -0.5874
  438SOL    HW1 1750   0.845   2.485   2.105 -0.1977  3.3053 -2.3474
  438SOL    HW2 1751   0.775   2.480   1.971  0.7165  2.5128 -0.8057
  438SOL     MW 1752   0.835   2.518   2.022  0.4089  0.9542 -0.8484
  439SOL     OW 1753   1.148   2.166   0.295 -0.0045 -0.2201  0.5457
  439SOL    HW1 1754   1.094   2.153   0.377  0.0391  1.8847 -0.6784
  439SOL    HW2 1755   1.140   2.265   0.279  1.7074 -0.5298 -0.8851
  439SOL     MW 1756   1.140   2.178   0.304  0.2271  0.0167  0.1954
  440SOL     OW 1757   1.635   3.038   2.983  0.6063 -0.3624  0.0114
  440SOL    HW1 1758   1.595   3.006   3.062  1.8763 -0.3279  0.5863
  440SOL    HW2 1759   1.683   2.956   2.960  0.9384 -0.4702  3.9370
  440SOL     MW 1760   1.636   3.023   2.991  0.8177 -0.3720  0.6052
  441SOL     OW 1761   0.327   2.568   0.537 -0.0085 -0.2062 -0.0188
  441SOL    HW1 1762   0.298   2.537   0.447  2.9079 -0.8665  2.2343
  441SOL    HW2 1763   0.332   2.665   0.542 -1.3691 -0.0102  0.8393
  441SOL     MW 1764   0.324   2.577   0.526  0.1968 -0.2675  0.3917
  442SOL     OW 1765   0.020   2.333   0.628  0.3386  0.2105 -0.3422
  442SOL    HW1 1766   0.035   2.426   0.623  0.6130 -2.6964 -2.0920
  442SOL    HW2 1767  -0.067   2.303   0.659  1.5069  1.2374 -0.1810
  442SOL     MW 1768   0.010   2.342   0.631  0.5290 -0.0375 -0.5518
  443SOL     OW 1769   1.410   1.728   1.844 -0.7588 -0.0970 -0.0363
  443SOL    HW1 1770   1.370   1.762   1.769  3.7523 -0.2728  0.1006
  443SOL    HW2 1771   1.372   1.640   1.865 -0.5178 -3.7926  1.8122
  443SOL     MW 1772   1.400   1.721   1.837 -0.1318 -0.6078  0.2257
  444SOL     OW 1773   0.855   2.574   1.585 -0.1129  0.2848 -0.3976
  444SOL    HW1 1774   0.934   2.524   1.629  0.3431 -2.9587  2.3618
  444SOL    HW2 1775   0.787   2.588   1.647 -1.2182 -1.5907 -1.7655
  444SOL     MW 1776   0.856   2.569   1.599 -0.1986 -0.3906 -0.2140
  445SOL     OW 1777   0.951   0.112   1.320 -0.1059 -0.0451 -0.1348
  445SOL    HW1 1778   0.899   0.181   1.281  1.7828 -0.0517  3.4697
  445SOL    HW2 1779   1.023   0.106   1.262 -2.3798 -0.8119 -0.0737
  445SOL     MW 1780   0.953   0.121   1.307 -0.1568 -0.1471  0.3488
  446SOL     OW 1781   2.742   2.910   1.031  0.2730  0.3999 -0.5647
  446SOL    HW1 1782   2.664   2.933   0.980  0.4085  0.2703 -2.4032
  446SOL    HW2 1783   2.766   2.815   1.012 -0.6216  1.3116 -1.5803
  446SOL     MW 1784   2.735   2.901   1.022  0.1729  0.5031 -0.9412
  447SOL     OW 1785   3.027   2.053   1.696  0.2748  0.4460  0.2981
  447SOL    HW1 1786   3.070   1.980   1.740 -0.3156  0.1683 -0.6421
  447SOL    HW2 1787   2.967   2.008   1.636 -0.7041 -2.2757 -1.9163
  447SOL     MW 1788   3.025   2.038   1.694  0.0678  0.0502 -0.1181
  448SOL     OW 1789   1.659   2.364   1.657 -0.1172  0.0889 -0.1512
  448SOL    HW1 1790   1.599   2.290   1.683 -0.6459 -0.3804 -2.0536
  448SOL    HW2 1791   1.605   2.442   1.646  3.7117 -1.2266  1.7093
  448SOL     MW 1792   1.644   2.365   1.659  0.3182 -0.1466 -0.1568
  449SOL     OW 1793   0.826   2.870   0.410  0.3118  0.2164 -0.0652
  449SOL    HW1 1794   0.786   2.896   0.328  0.5633  0.9274  0.6261
  449SOL    HW2 1795   0.753   2.862   0.472 -1.1963 -1.0980  0.7400
  449SOL     MW 1796   0.811   2.872   0.407  0.1460  0.1368  0.1322
  450SOL     OW 1797   1.222   2.428   0.637  0.0815 -0.3284 -0.4092
  450SOL    HW1 1798   1.226   2.421   0.737  0.2521  1.1135  2.7821
  450SOL    HW2 1799   1.311   2.423   0.602 -0.6464  2.5116 -0.8836
  450SOL     MW 1800   1.234   2.427   0.646  0.0080  0.2366 -0.0507
  451SOL     OW 1801   0.616   1.957   1.669  0.1198 -0.1141  0.2956
  451SOL    HW1 1802   0.690   2.021   1.691 -1.6152  2.0463 -0.2741
  451SOL    HW2 1803   0.600   1.959   1.574  0.2385 -0.2665 -0.3508
  451SOL     MW 1804   0.624   1.966   1.659 -0.0934  0.1509  0.1351
  452SOL     OW 1805   0.265   2.690   0.078  0.3639  0.1702  0.3881
  452SOL    HW1 1806   0.358   2.707   0.100  2.6448  1.1526  0.3802
  452SOL    HW2 1807   0.265   2.658  -0.014  0.9586 -1.3349  1.9056
  452SOL     MW 1808   0.277   2.688   0.069  0.7433  0.1012  0.5873
  453SOL     OW 1809   0.408   2.994   1.630 -0.2136 -0.4665  0.2298
  453SOL    HW1 1810   0.468   3.022   1.557  1.3526  0.7503 -1.6875
  453SOL    HW2 1811   0.337   2.960   1.574 -2.9021  1.0439 -0.1476
  453SOL     MW 1812   0.406   2.993   1.613 -0.3617 -0.1067 -0.0730
  454SOL     OW 1813   1.052   2.761   1.170 -0.2811  0.5620 -0.2673
  454SOL    HW1 1814   1.016   2.674   1.142  2.3340  1.9570 -1.4333
  454SOL    HW2 1815   0.977   2.820   1.184 -1.6324  1.2876  0.9292
  454SOL     MW 1816   1.037   2.757   1.168 -0.1144  0.8418 -0.2633
  455SOL     OW 1817   1.602   2.952   0.150 -0.4459 -0.4821  0.3502
  455SOL    HW1 1818   1.667   2.952   0.217  0.7310  2.5595  0.9152
  455SOL    HW2 1819   1.535   2.892   0.192 -3.4302  0.3895 -0.4084
  455SOL     MW 1820   1.602   2.944   0.165 -0.6844  0.0342  0.3246
  456SOL     OW 1821   2.913   0.308   1.390  0.8525 -0.2226  0.0589
  456SOL    HW1 1822   2.840   0.265   1.338 -3.0816 -2.6246 -0.4735
  456SOL    HW2 1823   2.965   0.359   1.329  1.6700 -3.1446 -0.0831
  456SOL     MW 1824   2.910   0.309   1.375  0.4413 -0.9251 -0.0301
  457SOL     OW 1825   0.912   1.552   2.994 -0.9487 -0.3138  0.4256
  457SOL    HW1 1826   0.851   1.555   3.067  1.8679  0.1436  0.0380
  457SOL    HW2 1827   0.980   1.496   3.032 -2.1787  2.0207  0.4235
  457SOL     MW 1828   0.913   1.545   3.009 -0.7394  0.0546  0.3741
  458SOL     OW 1829   1.456   1.396   0.605 -0.1865  0.3029  0.5606
  458SOL    HW1 1830   1.378   1.424   0.647  0.5322  0.5705 -0.4184
  458SOL    HW2 1831   1.429   1.329   0.541 -4.9166  0.3614 -0.6350
  458SOL     MW 1832   1.442   1.391   0.602 -0.7158  0.3459  0.2737
  459SOL     OW 1833   1.580   0.098   0.228  0.1954  0.3960 -0.2473
  459SOL    HW1 1834   1.584   0.002   0.199  0.6894 -0.9056  1.2040
  459SOL    HW2 1835   1.521   0.142   0.171 -1.1292 -1.8526  0.0707
  459SOL     MW 1836   1.572   0.091   0.217  0.0858 -0.0724 -0.0138
  460SOL     OW 1837   1.740   2.150   0.604 -0.3931  0.6308 -0.1852
  460SOL    HW1 1838   1.676   2.128   0.668  2.7274 -0.0080 -3.1897
  460SOL    HW2 1839   1.788   2.067   0.563 -1.0895 -0.5249  1.5308
  460SOL     MW 1840   1.738   2.136   0.607 -0.0733  0.3940 -0.3552
  461SOL     OW 1841   0.408   2.326   0.620  0.7062  0.0581 -0.2979
  461SOL    HW1 1842   0.398   2.409   0.564  2.7449  1.1269 -0.3166
  461SOL    HW2 1843   0.407   2.348   0.710 -1.4275 -0.6766 -1.3891
  461SOL     MW 1844   0.407   2.340   0.624  0.6937  0.1022 -0.4443
  462SOL     OW 1845   0.406   0.273   1.305 -0.3152  0.4870 -0.3927
  462SOL    HW1 1846   0.437   0.237   1.220  0.5326  0.7462 -2.7541
  462SOL    HW2 1847   0.466   0.353   1.322  2.2360  0.9382 -0.9665
  462SOL     MW 1848   0.418   0.279   1.296  0.1333  0.5807 -0.7800
  463SOL     OW 1849   0.990   0.036   0.702  0.6022  0.3582  0.1459
  463SOL    HW1 1850   1.028   0.010   0.615  0.8040  2.5862  1.8923
  463SOL    HW2 1851   0.897   0.039   0.686  0.2208  2.0337  1.9166
  463SOL     MW 1852   0.982   0.033   0.688  0.5785  0.8732  0.6100
  464SOL     OW 1853   0.849   2.980   2.150  0.0448 -0.1189  0.1234
  464SOL    HW1 1854   0.810   2.893   2.167 -0.6818  0.8994  0.7590
  464SOL    HW2 1855   0.846   3.007   2.241 -0.1589 -0.4834 -2.9704
  464SOL     MW 1856   0.843   2.972   2.164 -0.0780 -0.0327 -0.2009
  465SOL     OW 1857   0.690   0.235   0.458  0.7759 -0.6424  0.4158
  465SOL    HW1 1858   0.672   0.166   0.521  1.5213  0.7977  0.2518
  465SOL    HW2 1859   0.723   0.200   0.370  0.8348 -2.1304  0.3696
  465SOL     MW 1860   0.692   0.221   0.455  0.8820 -0.6487  0.3881
  466SOL     OW 1861   1.091   1.981   0.722  0.0435 -0.4225 -0.9095
  466SOL    HW1 1862   1.090   1.918   0.650  1.2104  1.1959 -0.4644
  466SOL    HW2 1863   1.089   2.067   0.669 -1.2685  1.0978  0.1561
  466SOL     MW 1864   1.091   1.984   0.705  0.0244 -0.0083 -0.7102
  467SOL     OW 1865   1.279   2.345   0.952  0.2924 -1.0754  0.6750
  467SOL    HW1 1866   1.368   2.360   0.974  2.1026 -0.7670  1.3257
  467SOL    HW2 1867   1.268   2.244   0.939  2.1497 -0.3767 -2.0205
  467SOL     MW 1868   1.290   2.334   0.953  0.7762 -0.9425  0.4052
  468SOL     OW 1869   0.320   2.593   2.004  0.0190  0.4176 -0.1892
  468SOL    HW1 1870   0.309   2.499   1.987 -0.1182  0.4253  0.5330
  468SOL    HW2 1871   0.376   2.635   1.934 -1.9463 -0.4402 -4.0991
  468SOL     MW 1872   0.326   2.586   1.993 -0.2584  0.3054 -0.6098
  469SOL     OW 1873   0.399   2.068   1.822 -0.1279  0.5079  0.8402
  469SOL    HW1 1874   0.338   2.024   1.764  0.3485  1.7947  1.6595
  469SOL    HW2 1875   0.485   2.050   1.772  1.3284 -1.8488  0.3114
  469SOL     MW 1876   0.402   2.060   1.807  0.1271  0.3667  0.8785
  470SOL     OW 1877   3.105   2.546   0.186 -0.6431 -0.3887 -0.2959
  470SOL    HW1 1878   3.021   2.505   0.208 -1.5355 -0.7413 -0.5932
  470SOL    HW2 1879   3.089   2.557   0.091 -0.3082 -1.8268 -1.7738
  470SOL     MW 1880   3.092   2.542   0.177 -0.7167 -0.6250 -0.5301
  471SOL     OW 1881   1.203   2.729   1.399 -0.4340 -0.8677 -0.2572
  471SOL    HW1 1882   1.120   2.748   1.444 -1.5319  0.6473 -2.0776
  471SOL    HW2 1883   1.176   2.743   1.313 -1.6559 -1.7345  0.1949
  471SOL     MW 1884   1.189   2.733   1.394 -0.7401 -0.7822 -0.4378
  472SOL     OW 1885   2.937   2.128   0.384 -0.3202  0.1373  0.1766
  472SOL    HW1 1886   2.955   2.091   0.290  0.3426  0.7698  0.3265
  472SOL    HW2 1887   2.915   2.052   0.439 -1.7862 -2.1665 -3.4296
  472SOL     MW 1888   2.936   2.113   0.379 -0.4261 -0.0832 -0.2794
  473SOL     OW 1889   0.789   2.516   1.311  0.1084  0.1585  0.0767
  473SOL    HW1 1890   0.851   2.442   1.291  1.8856  0.2364 -0.1173
  473SOL    HW2 1891   0.817   2.553   1.394 -0.8821 -0.1696 -0.5779
  473SOL     MW 1892   0.801   2.511   1.319  0.2122  0.1255 -0.0353
  474SOL     OW 1893   0.847   2.189   1.766  0.4318  0.5052  1.0365
  474SOL    HW1 1894   0.929   2.228   1.784  0.4903  0.1142 -2.5006
  474SOL    HW2 1895   0.859   2.164   1.679 -1.2346 -0.1606 -0.4706
  474SOL     MW 1896   0.859   2.191   1.757  0.2196  0.3658  0.3710
  475SOL     OW 1897   1.682   3.090   1.439 -0.7201 -0.0883  0.3472
  475SOL    HW1 1898   1.592   3.102   1.402 -1.4160  2.0839 -1.5394
  475SOL    HW2 1899   1.685   2.999   1.464  3.1654 -0.5895  0.5915
  475SOL     MW 1900   1.670   3.080   1.438 -0.2993  0.1322  0.1305
  476SOL     OW 1901   1.470   2.616   0.796  0.1559 -0.0436 -0.0458
  476SOL    HW1 1902   1.442   2.623   0.889 -1.6220 -3.5647  2.1580
  476SOL    HW2 1903   1.502   2.703   0.776 -0.1986 -1.0509 -0.3955
  476SOL     MW 1904   1.471   2.629   0.806 -0.1255 -0.6411  0.1989
  477SOL     OW 1905   0.859   2.531   0.580  0.0641  0.3580  0.4594
  477SOL    HW1 1906   0.940   2.583   0.538 -2.0084  0.0486 -2.6672
  477SOL    HW2 1907   0.861   2.438   0.543  0.2517 -1.9267 -2.2453
  477SOL     MW 1908   0.870   2.526   0.569 -0.1846  0.0157 -0.3100
  478SOL     OW 1909   0.229   2.610   1.000  0.0895 -0.4644 -0.2559
  478SOL    HW1 1910   0.285   2.681   0.963  2.6459 -1.4879  0.4076
  478SOL    HW2 1911   0.273   2.541   0.949  0.9251 -1.3382 -0.1470
  478SOL     MW 1912   0.242   2.610   0.988  0.5371 -0.7148 -0.1540
  479SOL     OW 1913   1.435   1.920   1.329 -0.7366  0.2954  0.2006
  479SOL    HW1 1914   1.382   1.981   1.381  1.7509 -0.7126 -2.1583
  479SOL    HW2 1915   1.505   1.885   1.385 -0.1426  1.7060  0.1590
  479SOL     MW 1916   1.437   1.923   1.344 -0.3301  0.3485 -0.1161
  480SOL     OW 1917   1.796   2.367   1.308 -0.1984 -0.3105 -0.5770
  480SOL    HW1 1918   1.786   2.279   1.335  0.2828 -0.5066  3.0660
  480SOL    HW2 1919   1.822   2.364   1.213  1.2703  0.6532 -0.6813
  480SOL     MW 1920   1.798   2.355   1.299  0.0589 -0.2092 -0.1101
  481SOL     OW 1921   1.175   0.151   1.085 -0.1506  0.0700  0.8075
  481SOL    HW1 1922   1.256   0.142   1.028 -0.8196  3.3265 -0.4508
  481SOL    HW2 1923   1.166   0.247   1.091  0.7483  0.3151 -0.0181
  481SOL     MW 1924   1.185   0.162   1.078 -0.1203  0.5320  0.5326
  482SOL     OW 1925   1.051   3.070   0.442 -0.5650  0.4769 -0.3286
  482SOL    HW1 1926   0.996   2.992   0.421  0.2049 -0.2271  1.2750
  482SOL    HW2 1927   1.035   3.129   0.368  1.4302  0.1506 -0.9597
  482SOL     MW 1928   1.042   3.068   0.429 -0.2002  0.3409 -0.2003
  483SOL     OW 1929   0.332   2.856   0.541 -0.1278 -0.3690  0.4380
  483SOL    HW1 1930   0.294   2.906   0.471 -4.7501  0.3979  0.5886
  483SOL    HW2 1931   0.299   2.912   0.618 -1.4622 -0.8213  0.5046
  483SOL     MW 1932   0.323   2.870   0.542 -0.9137 -0.3275  0.4666
  484SOL     OW 1933   1.665   1.852   1.468 -0.3516  0.2075 -0.0868
  484SOL    HW1 1934   1.706   1.929   1.422  0.3617  1.0367  1.6052
  484SOL    HW2 1935   1.702   1.864   1.556 -2.1454 -0.7948 -0.4228
  484SOL     MW 1936   1.676   1.864   1.474 -0.4941  0.1847  0.0921
  485SOL     OW 1937   0.550   2.312   0.293  0.3391 -0.0008 -0.0593
  485SOL    HW1 1938   0.595   2.285   0.372 -0.8823 -2.3489 -1.5007
  485SOL    HW2 1939   0.462   2.336   0.305  1.7022  0.1127 -3.4757
  485SOL     MW 1940   0.544   2.312   0.305  0.3578 -0.2956 -0.7003
  486SOL     OW 1941   0.094   2.533   1.484 -0.0611 -0.3190 -0.0956
  486SOL    HW1 1942   0.122   2.620   1.463  1.2864 -2.1539 -0.8612
  486SOL    HW2 1943   0.120   2.527   1.577 -1.1037 -1.5162  1.1248
  486SOL     MW 1944   0.101   2.544   1.494 -0.0209 -0.7190 -0.0356
  487SOL     OW 1945   1.311   1.589   1.058 -0.4439  0.6531 -1.3469
  487SOL    HW1 1946   1.283   1.677   1.094  0.4924  1.3681  2.8480
  487SOL    HW2 1947   1.406   1.584   1.063 -2.3840  0.0247 -0.7139
  487SOL     MW 1948   1.320   1.600   1.063 -0.5764  0.6645 -0.7099
  488SOL     OW 1949   1.463   1.809   0.607  0.4389 -0.2032 -0.0858
  488SOL    HW1 1950   1.437   1.885   0.552 -1.7073  0.6244  1.8746
  488SOL    HW2 1951   1.432   1.733   0.559  1.6263  0.2994  2.2081
  488SOL     MW 1952   1.455   1.809   0.593  0.3124 -0.0277  0.4755
  489SOL     OW 1953   0.689   0.713   0.521  0.2903  0.8378  0.4512
  489SOL    HW1 1954   0.647   0.635   0.479 -0.1652  1.4478 -1.4283
  489SOL    HW2 1955   0.647   0.722   0.607  0.4179  1.1548  1.1605
  489SOL     MW 1956   0.678   0.704   0.527  0.2470  0.9601  0.2968
  490SOL     OW 1957   1.357   2.061   0.467  0.3868 -0.1149  0.0388
  490SOL    HW1 1958   1.424   2.106   0.412  0.7027  0.2250 -1.0366
  490SOL    HW2 1959   1.272   2.097   0.438 -0.1196  1.1158  0.9865
  490SOL     MW 1960   1.355   2.071   0.456  0.3616  0.0923  0.0220
  491SOL     OW 1961   1.308   3.008   0.389 -0.3770 -0.0949 -0.1272
  491SOL    HW1 1962   1.347   3.045   0.468  1.0454  2.1438 -0.8053
  491SOL    HW2 1963   1.216   3.006   0.407 -2.3910  2.3568 -1.0978
  491SOL     MW 1964   1.301   3.012   0.402 -0.4550  0.5240 -0.3447
  492SOL     OW 1965   1.466   2.153   0.719 -0.1781  0.3128 -0.4321
  492SOL    HW1 1966   1.412   2.109   0.656 -0.9577 -0.4433  0.9887
  492SOL    HW2 1967   1.417   2.164   0.799 -0.2398  0.8789  1.8919
  492SOL     MW 1968   1.452   2.149   0.721 -0.2891  0.2878  0.0620
  493SOL     OW 1969   0.204   3.050   0.326  0.5349 -0.4522  0.1866
  493SOL    HW1 1970   0.142   3.083   0.395 -1.7835  2.0164 -0.0564
  493SOL    HW2 1971   0.150   3.004   0.261  0.9387  0.9695 -1.0037
  493SOL     MW 1972   0.189   3.048   0.327  0.2823  0.0611 -0.0025
  494SOL     OW 1973   0.387   2.373   1.796  0.4451  0.0679 -0.1870
  494SOL    HW1 1974   0.387   2.274   1.774 -1.0471 -0.1575  1.6633
  494SOL    HW2 1975   0.423   2.409   1.710 -0.6478 -0.1551 -1.0667
  494SOL     MW 1976   0.392   2.364   1.782  0.1040  0.0087 -0.0590
  495SOL     OW 1977   2.862   1.617   2.685  0.3283  0.4708  0.0490
  495SOL    HW1 1978   2.851   1.687   2.747 -0.1306 -0.0225  0.7678
  495SOL    HW2 1979   2.820   1.543   2.724  1.6717  1.9502  0.0395
  495SOL     MW 1980   2.855   1.617   2.698  0.4450  0.6009  0.1426
  496SOL     OW 1981   2.807   2.281   2.709 -0.3217 -0.0507  0.3184
  496SOL    HW1 1982   2.814   2.192   2.745 -0.8967  2.5302  0.6821
  496SOL    HW2 1983   2.899   2.314   2.715 -2.6065 -0.5398  0.0419
  496SOL     MW 1984   2.820   2.273   2.714 -0.6991  0.2253  0.3299
  497SOL     OW 1985   1.520   2.388   2.585  0.4727 -0.5764 -0.3192
  497SOL    HW1 1986   1.514   2.341   2.499 -1.3612 -2.4676 -0.5277
  497SOL    HW2 1987   1.462   2.336   2.643 -1.6787 -0.9246 -1.5034
  497SOL     MW 1988   1.512   2.375   2.582 -0.0531 -0.8719 -0.5030
  498SOL     OW 1989   1.435   2.757   2.320  0.0915 -0.2101  0.2400
  498SOL    HW1 1990   1.420   2.661   2.307  0.7212 -0.6577  0.0992
  498SOL    HW2 1991   1.525   2.755   2.366  1.2647  2.8636  1.5454
  498SOL     MW 1992   1.445   2.744   2.324  0.3294  0.1364  0.3937
  499SOL     OW 1993   0.994   0.078   0.075 -0.3172 -0.1309  0.0885
  499SOL    HW1 1994   0.942   0.134   0.140 -0.3931  2.5061 -0.5506
  499SOL    HW2 1995   0.970  -0.018   0.076  1.3307 -0.1994 -1.1315
  499SOL     MW 1996   0.984   0.073   0.084 -0.1098  0.2080 -0.1568
  500SOL     OW 1997   1.070   2.509   2.733 -0.1909  0.0343 -0.4244
  500SOL    HW1 1998   1.081   2.471   2.818 -2.3142  0.1156 -1.0762
  500SOL    HW2 1999   1.020   2.587   2.747 -0.5315 -0.0454  1.1806
  500SOL     MW 2000   1.065   2.514   2.746 -0.5160  0.0345 -0.2986
  501SOL     OW 2001   1.819   2.272   3.007 -0.4426 -0.4551  0.8705
  501SOL    HW1 2002   1.823   2.367   3.021 -0.0627 -0.0360 -1.9522
  501SOL    HW2 2003   1.904   2.231   3.036 -0.4914  1.9750  2.1872
  501SOL     MW 2004   1.831   2.279   3.013 -0.3989 -0.0792  0.6718
  502SOL     OW 2005   0.285   2.736   2.890 -0.1186  0.0725  0.8241
  502SOL    HW1 2006   0.324   2.733   2.803 -4.4905 -1.4972  0.2633
  502SOL    HW2 2007   0.248   2.819   2.895 -2.4078 -1.2853 -0.0870
  502SOL     MW 2008   0.285   2.747   2.879 -0.9975 -0.3137  0.6299
  503SOL     OW 2009   1.131   2.535   2.066 -0.4721  0.4473  0.6298
  503SOL    HW1 2010   1.181   2.588   2.001 -3.3266 -0.2971 -1.1032
  503SOL    HW2 2011   1.049   2.519   2.019  2.8916  4.4038 -3.2878
  503SOL     MW 2012   1.127   2.540   2.052 -0.4049  0.8711 -0.1157
  504SOL     OW 2013   0.092   2.656   2.171  0.2957 -0.8618 -0.7486
  504SOL    HW1 2014   0.159   2.617   2.114  3.0296  0.8224 -0.7131
  504SOL    HW2 2015   0.067   2.586   2.236  0.7714 -2.9616  1.0453
  504SOL     MW 2016   0.098   2.641   2.172  0.7191 -0.9167 -0.5072
  505SOL     OW 2017   1.575   2.812   2.736  0.4261 -0.3833 -0.0394
  505SOL    HW1 2018   1.609   2.835   2.644 -2.9548 -3.1364 -1.1523
  505SOL    HW2 2019   1.508   2.879   2.760 -0.4267  1.9575 -0.4803
  505SOL     MW 2020   1.570   2.824   2.727 -0.1325 -0.4377 -0.2444
  506SOL     OW 2021   1.610   0.090   2.747  0.3578 -0.0319  0.0780
  506SOL    HW1 2022   1.600   0.037   2.825 -0.0619  2.6645 -3.3208
  506SOL    HW2 2023   1.683   0.051   2.705 -3.2289 -3.1887 -0.9500
  506SOL     MW 2024   1.618   0.078   2.752 -0.1708 -0.0926 -0.5060
  507SOL     OW 2025   0.869   2.706   2.838  0.3044  0.4544 -0.0509
  507SOL    HW1 2026   0.877   2.779   2.777  0.6741 -0.9856 -1.5885
  507SOL    HW2 2027   0.787   2.656   2.821 -1.2911 -1.4981  1.4224
  507SOL     MW 2028   0.859   2.709   2.827  0.1427  0.0068 -0.0594
  508SOL     OW 2029   1.190   2.122   2.528 -0.7446  0.1260 -0.1277
  508SOL    HW1 2030   1.271   2.150   2.579  0.7451 -1.8640 -1.9799
  508SOL    HW2 2031   1.130   2.084   2.593 -0.3026 -0.9864  2.0577
  508SOL     MW 2032   1.193   2.121   2.543 -0.4897 -0.2834 -0.0837
  509SOL     OW 2033   0.616   2.541   2.832  0.4739  0.6206 -0.5515
  509SOL    HW1 2034   0.609   2.469   2.763 -1.4817 -2.1404  1.6548
  509SOL    HW2 2035   0.539   2.590   2.819  2.6499 -1.7759 -0.4900
  509SOL     MW 2036   0.605   2.538   2.821  0.5030 -0.0599 -0.2523
  510SOL     OW 2037   1.491   2.581   1.634  0.1557 -0.2430 -0.3740
  510SOL    HW1 2038   1.515   2.647   1.566 -1.1703 -0.6830 -1.4471
  510SOL    HW2 2039   1.438   2.623   1.708  0.1552  1.1796 -0.0496
  510SOL     MW 2040   1.487   2.595   1.635 -0.0193 -0.1133 -0.4728
  511SOL     OW 2041   0.344   2.513   2.469  0.0520 -0.0241  0.2575
  511SOL    HW1 2042   0.429   2.475   2.501  0.9909 -1.1943 -1.6144
  511SOL    HW2 2043   0.378   2.550   2.386 -1.4511  1.3287  1.9911
  511SOL     MW 2044   0.360   2.513   2.462 -0.0224  0.0000  0.2393
  512SOL     OW 2045   1.016   1.953   2.806  0.4573 -0.2206 -0.3454
  512SOL    HW1 2046   0.935   1.979   2.848  0.5085  0.3368  1.2024
  512SOL    HW2 2047   1.043   1.873   2.864  0.0185  0.2009 -2.6997
  512SOL     MW 2048   1.009   1.945   2.819  0.4061 -0.0914 -0.4518
  513SOL     OW 2049   1.506   2.490   2.289 -0.2973 -0.2460  0.1597
  513SOL    HW1 2050   1.589   2.517   2.241 -0.9559 -2.8850 -1.1387
  513SOL    HW2 2051   1.521   2.400   2.326  1.7556  0.6405 -1.2201
  513SOL     MW 2052   1.519   2.482   2.287 -0.1134 -0.4772 -0.1937
  514SOL     OW 2053   0.200   2.339   2.674 -0.7893 -0.4555 -0.2677
  514SOL    HW1 2054   0.256   2.400   2.627 -0.7716 -1.0080 -1.6425
  514SOL    HW2 2055   0.255   2.315   2.747  1.3984  0.3928  0.4881
  514SOL     MW 2056   0.215   2.344   2.678 -0.4983 -0.4164 -0.3494
  515SOL     OW 2057   1.080   1.979   1.850 -0.1120 -0.5515 -0.3268
  515SOL    HW1 2058   1.034   2.069   1.861 -1.7305  3.4480  0.5412
  515SOL    HW2 2059   1.145   1.978   1.925 -0.2590  0.0615  1.3387
  515SOL     MW 2060   1.083   1.991   1.861 -0.3450  0.0570  0.0075
  516SOL     OW 2061   1.298   2.584   2.908 -0.0330 -0.4346 -0.2446
  516SOL    HW1 2062   1.286   2.584   2.809 -1.3396  0.5935  0.2363
  516SOL    HW2 2063   1.232   2.517   2.944  0.0433  0.1223 -0.0200
  516SOL     MW 2064   1.288   2.575   2.899 -0.1953 -0.2255 -0.1515
  517SOL     OW 2065   0.524   2.297   2.242 -0.0718  0.5949 -0.4393
  517SOL    HW1 2066   0.482   2.382   2.231  0.1192  3.7137  2.9857
  517SOL    HW2 2067   0.467   2.242   2.195  0.0056  1.2790  1.2986
  517SOL     MW 2068   0.511   2.301   2.235 -0.0364  1.0967  0.2419
  518SOL     OW 2069   1.781   0.176   3.050  0.3411 -0.4102 -0.0003
  518SOL    HW1 2070   1.791   0.166   3.148 -1.8201  1.3217  1.4513
  518SOL    HW2 2071   1.748   0.094   3.014 -0.5118  2.1825 -1.1813
  518SOL     MW 2072   1.778   0.164   3.058 -0.0566  0.1604  0.0354
  519SOL     OW 2073   0.622   2.374   1.977  0.0511  0.4941 -0.4617
  519SOL    HW1 2074   0.637   2.278   1.972  0.0221  0.6755  1.0952
  519SOL    HW2 2075   0.560   2.397   1.908  0.4692 -0.0334 -2.7263
  519SOL     MW 2076   0.616   2.364   1.967  0.1024  0.4484 -0.5551
  520SOL     OW 2077   1.203   2.127   2.914  0.5599 -0.4806  0.3752
  520SOL    HW1 2078   1.156   2.060   2.868 -0.2480  0.8108  0.4821
  520SOL    HW2 2079   1.211   2.088   3.005 -0.5202 -0.6672  1.6275
  520SOL     MW 2080   1.198   2.113   2.920  0.3108 -0.3348  0.5545
  521SOL     OW 2081   1.754   2.025   2.235  0.1685 -0.1296  0.5444
  521SOL    HW1 2082   1.781   2.040   2.141  0.0281  1.3768  0.6595
  521SOL    HW2 2083   1.731   1.935   2.242  1.9081  0.4013 -2.4515
  521SOL     MW 2084   1.754   2.015   2.224  0.3795  0.1392  0.1643
  522SOL     OW 2085   2.811   2.569   2.221  0.3642  0.1327  0.6315
  522SOL    HW1 2086   2.875   2.505   2.256 -2.1407 -0.9152 -0.8237
  522SOL    HW2 2087   2.844   2.662   2.220 -1.1674 -2.2003  2.6488
  522SOL     MW 2088   2.824   2.573   2.225 -0.1683 -0.3134  0.7057
  523SOL     OW 2089   0.802   1.477   2.156  0.1360  0.3693 -0.0704
  523SOL    HW1 2090   0.770   1.507   2.066  0.2030 -1.7399 -1.0437
  523SOL    HW2 2091   0.894   1.444   2.141  0.4569  1.3482 -0.2294
  523SOL     MW 2092   0.810   1.477   2.142  0.1872  0.2202 -0.2198
  524SOL     OW 2093   0.561   2.371   3.038  0.2836 -0.2306 -0.4765
  524SOL    HW1 2094   0.592   2.433   2.965  1.2531  3.2380 -3.0983
  524SOL    HW2 2095   0.638   2.311   3.042 -1.7341  0.6323 -1.1448
  524SOL     MW 2096   0.575   2.371   3.029  0.1453  0.3409 -0.9106
  525SOL     OW 2097   0.323   2.154   2.089  0.5479 -0.3842 -0.2692
  525SOL    HW1 2098   0.308   2.085   2.157  0.6224  1.5053 -1.2647
  525SOL    HW2 2099   0.358   2.107   2.012  1.1473 -0.3577  0.1795
  525SOL     MW 2100   0.326   2.139   2.088  0.6368 -0.1314 -0.3414
  526SOL     OW 2101   0.743   2.088   1.990  0.1131 -0.4140 -0.2090
  526SOL    HW1 2102   0.780   2.124   1.919  0.1542 -1.2825  0.7168
  526SOL    HW2 2103   0.795   2.113   2.068 -1.1742  0.2785  1.4776
  526SOL     MW 2104   0.755   2.096   1.991 -0.0513 -0.4372  0.1357
  527SOL     OW 2105   1.284   1.912   2.019  0.5639 -0.1126 -0.6151
  527SOL    HW1 2106   1.256   1.890   2.108  0.8788  0.4769  1.7846
  527SOL    HW2 2107   1.320   1.832   1.983 -1.5237 -1.3589  0.1033
  527SOL     MW 2108   1.285   1.899   2.026  0.3300 -0.1992 -0.2037
  528SOL     OW 2109   0.596   2.906   3.013  0.4203  0.1185  0.2204
  528SOL    HW1 2110   0.612   3.003   2.993  0.5152  0.0465 -0.0712
  528SOL    HW2 2111   0.550   2.873   2.935 -0.1566  2.9391  0.2188
  528SOL     MW 2112   0.592   2.915   3.000  0.3567  0.4812  0.1817
  529SOL     OW 2113   1.099   2.271   1.799 -0.0221  0.0675 -0.0917
  529SOL    HW1 2114   1.175   2.257   1.859  0.3349 -0.6339  1.1488
  529SOL    HW2 2115   1.142   2.283   1.713 -1.8212 -0.8156  0.0336
  529SOL     MW 2116   1.114   2.271   1.796 -0.2124 -0.1415  0.0885
  530SOL     OW 2117   1.110   2.405   2.973  0.2405 -0.2543  0.7863
  530SOL    HW1 2118   1.029   2.436   3.026 -2.7526 -1.7045  0.6626
  530SOL    HW2 2119   1.140   2.319   3.000  1.5861  2.8731  0.4539
  530SOL     MW 2120   1.103   2.397   2.983  0.0232 -0.0330  0.7261
  531SOL     OW 2121   0.904   1.819   2.620  0.1186  0.2225  0.2716
  531SOL    HW1 2122   0.935   1.868   2.693 -2.1057  0.2916  0.1691
  531SOL    HW2 2123   0.877   1.737   2.657  0.0314  1.4263 -0.9699
  531SOL     MW 2124   0.904   1.815   2.635 -0.1864  0.3905  0.0943
  532SOL     OW 2125   1.707   0.341   2.842 -0.4735 -0.6441  0.5655
  532SOL    HW1 2126   1.672   0.258   2.807 -0.3069  1.5329  1.2621
  532SOL    HW2 2127   1.715   0.316   2.933 -0.3407  1.0050  0.6169
  532SOL     MW 2128   1.703   0.327   2.849 -0.4340 -0.1393  0.6642
  533SOL     OW 2129   1.777   2.796   2.958  0.0026 -0.4349  0.1398
  533SOL    HW1 2130   1.783   2.713   3.008  3.3183 -1.2532  2.4845
  533SOL    HW2 2131   1.711   2.780   2.889 -1.6269  0.1667 -1.9541
  533SOL     MW 2132   1.769   2.783   2.956  0.2251 -0.4635  0.1729
  534SOL     OW 2133   1.755   2.495   2.492 -0.7145 -0.8267  0.3158
  534SOL    HW1 2134   1.669   2.465   2.533  1.0309  0.6541 -3.3185
  534SOL    HW2 2135   1.819   2.497   2.565  0.0966  0.9315  3.2050
  534SOL     MW 2136   1.752   2.491   2.507 -0.3772 -0.3994  0.2175
  535SOL     OW 2137   1.795   2.390   1.927 -0.0245 -0.1554 -0.1679
  535SOL    HW1 2138   1.742   2.410   1.856 -1.0026 -2.0326  1.6804
  535SOL    HW2 2139   1.884   2.421   1.902  0.2060  0.7357 -0.1936
  535SOL     MW 2140   1.800   2.397   1.914 -0.1231 -0.2855  0.0726
  536SOL     OW 2141   0.404   1.878   2.034 -0.2348  0.0541  0.0020
  536SOL    HW1 2142   0.408   1.924   1.950  3.2588 -0.3224  0.4607
  536SOL    HW2 2143   0.490   1.824   2.035  2.9768 -0.2944 -0.2895
  536SOL     MW 2144   0.416   1.877   2.023  0.6499 -0.0416  0.0241
  537SOL     OW 2145   0.980   0.173   2.928 -0.1508 -0.1425 -0.0283
  537SOL    HW1 2146   0.963   0.151   3.021 -0.5443  1.9109 -0.4760
  537SOL    HW2 2147   0.936   0.255   2.913 -3.4024  0.3322 -0.1346
  537SOL     MW 2148   0.972   0.181   2.938 -0.6317  0.1910 -0.1014
  538SOL     OW 2149   1.289   0.056   3.023  0.1870  0.1400  0.4850
  538SOL    HW1 2150   1.203   0.097   3.009  1.6971  0.2852  1.4491
  538SOL    HW2 2151   1.338   0.126   3.063  2.9773  2.2420  1.8233
  538SOL     MW 2152   1.284   0.071   3.026  0.7544  0.4365  0.7887
  539SOL     OW 2153   0.736   2.721   2.513  0.3182 -0.4850 -0.4135
  539SOL    HW1 2154   0.807   2.775   2.551  1.6012 -0.8155 -0.4526
  539SOL    HW2 2155   0.766   2.632   2.500  1.3537  1.2114 -0.0444
  539SOL     MW 2156   0.749   2.717   2.516  0.6241 -0.3048 -0.3700
  540SOL     OW 2157   0.411   2.215   2.892 -0.0629  0.2897 -0.0373
  540SOL    HW1 2158   0.462   2.282   2.954  0.5224  1.4659  1.0912
  540SOL    HW2 2159   0.343   2.175   2.949 -0.8272 -0.4388  0.1397
  540SOL     MW 2160   0.408   2.218   2.908 -0.0865  0.3487  0.1349
  541SOL     OW 2161   0.196   2.888   2.256  0.2151 -0.1100 -0.4006
  541SOL    HW1 2162   0.159   2.804   2.222 -1.8744  1.3120  0.9177
  541SOL    HW2 2163   0.212   2.864   2.351 -0.2595  0.1275 -0.9660
  541SOL     MW 2164   0.193   2.874   2.264 -0.1232  0.1090 -0.3013
  542SOL     OW 2165   0.870   2.316   2.771  0.4855 -0.3419  0.2516
  542SOL    HW1 2166   0.865   2.283   2.867 -1.0263  0.4582  3.5980
  542SOL    HW2 2167   0.934   2.383   2.777  1.4766 -0.9825 -0.2219
  542SOL     MW 2168   0.877   2.320   2.785  0.4168 -0.3209  0.6307
  543SOL     OW 2169   1.352   2.646   2.647 -0.0085  0.1901  0.8016
  543SOL    HW1 2170   1.387   2.579   2.592  1.1491  0.7178 -0.5798
  543SOL    HW2 2171   1.435   2.681   2.684  0.8537 -0.1602  2.3636
  543SOL     MW 2172   1.367   2.642   2.645  0.2580  0.2135  0.8254
  544SOL     OW 2173   0.702   0.094   2.616 -0.2563 -0.5638 -0.7936
  544SOL    HW1 2174   0.624   0.044   2.593  1.0892  2.1631 -1.5654
  544SOL    HW2 2175   0.754   0.068   2.544 -0.2269  2.9136  0.9918
  544SOL     MW 2176   0.699   0.084   2.603 -0.0749  0.2548 -0.6598
  545SOL     OW 2177   1.570   2.229   2.337  0.2058  0.1450 -0.6207
  545SOL    HW1 2178   1.545   2.151   2.394  0.1485  1.5232 -1.4704
  545SOL    HW2 2179   1.647   2.200   2.290 -0.8743  2.4210  3.9185
  545SOL     MW 2180   1.577   2.215   2.338  0.0557  0.6272 -0.1339
  546SOL     OW 2181   2.987   2.010   0.120 -0.5002 -0.1407 -0.3869
  546SOL    HW1 2182   2.962   2.091   0.068 -1.9619  0.6082 -0.6993
  546SOL    HW2 2183   3.054   1.970   0.062  3.5947  1.7596 -1.6286
  546SOL     MW 2184   2.992   2.016   0.106 -0.1528  0.2088 -0.5920
  547SOL     OW 2185   0.131   2.933   0.072 -0.2909  0.0916 -0.7541
  547SOL    HW1 2186   0.167   2.969  -0.011 -0.7368  2.9993 -0.8198
  547SOL    HW2 2187   0.173   2.846   0.081 -2.3993 -1.3159 -0.8398
  547SOL     MW 2188   0.141   2.926   0.062 -0.6279  0.2895 -0.7741
  548SOL     OW 2189   0.253   2.502   0.293  0.3489 -0.4677 -0.2380
  548SOL    HW1 2190   0.288   2.558   0.226 -0.1669  0.0178  1.4360
  548SOL    HW2 2191   0.153   2.509   0.285  1.4360 -0.3246 -1.0594
  548SOL     MW 2192   0.244   2.511   0.283  0.4243 -0.3848 -0.1255
  549SOL     OW 2193   0.701   1.836   2.049  0.4042 -0.1586  0.0924
  549SOL    HW1 2194   0.714   1.938   2.044 -2.6888  4.7768  0.1749
  549SOL    HW2 2195   0.712   1.815   2.139  0.3378 -0.5189 -0.5688
  549SOL     MW 2196   0.704   1.847   2.060 -0.0127  0.4450  0.0161
  550SOL     OW 2197   1.857   1.733   2.512  0.5148  0.1404  0.4158
  550SOL    HW1 2198   1.832   1.730   2.422 -0.1868  0.4033 -2.4098
  550SOL    HW2 2199   1.845   1.831   2.526  0.8160  0.9951  0.3729
  550SOL     MW 2200   1.852   1.745   2.502  0.4620  0.2879  0.0373
  551SOL     OW 2201   0.854   2.291   0.239 -0.1338 -0.0618  0.3976
  551SOL    HW1 2202   0.934   2.340   0.214 -0.2424  0.9955 -1.5731
  551SOL    HW2 2203   0.833   2.241   0.160 -1.9875  1.0513  0.6576
  551SOL     MW 2204   0.862   2.291   0.226 -0.3927  0.2245  0.1719
  552SOL     OW 2205   1.719   1.746   2.270  0.2816  0.3917  0.4688
  552SOL    HW1 2206   1.637   1.706   2.294  2.3646 -0.3866  0.4479
  552SOL    HW2 2207   1.749   1.683   2.200  1.8787 -1.5074 -1.6100
  552SOL     MW 2208   1.712   1.732   2.264  0.7671  0.0384  0.1918
  553SOL     OW 2209   1.217   2.307   1.520 -0.0942  0.4400 -0.0129
  553SOL    HW1 2210   1.263   2.221   1.510  3.2283  1.8881  0.4487
  553SOL    HW2 2211   1.265   2.375   1.470  0.4110 -0.4254 -1.1297
  553SOL     MW 2212   1.229   2.304   1.512  0.4108  0.5169 -0.0994
  554SOL     OW 2213   0.542   2.810   2.693 -0.4768  0.2324  0.5605
  554SOL    HW1 2214   0.502   2.881   2.647 -0.3460 -1.2939 -1.9489
  554SOL    HW2 2215   0.610   2.779   2.627 -3.2684 -0.5792 -0.3943
  554SOL     MW 2216   0.545   2.816   2.678 -0.8279 -0.0761  0.1034
  555SOL     OW 2217   0.569   2.386   2.606 -0.2483 -0.1721  0.0064
  555SOL    HW1 2218   0.574   2.294   2.637 -2.4861 -1.8861  5.4850
  555SOL    HW2 2219   0.661   2.399   2.568  2.3016 -0.7796 -2.3419
  555SOL     MW 2220   0.582   2.376   2.605 -0.2071 -0.4784  0.4194
  556SOL     OW 2221   1.053   1.811   0.144 -0.0516 -0.5281  0.2016
  556SOL    HW1 2222   1.083   1.794   0.054 -0.7841 -0.5423  0.3327
  556SOL    HW2 2223   1.134   1.829   0.195 -2.5208 -1.3840 -1.1551
  556SOL     MW 2224   1.068   1.811   0.139 -0.4741 -0.6429  0.0399
  557SOL     OW 2225   1.053   2.700   0.457  0.2227 -0.2213  0.1914
  557SOL    HW1 2226   1.101   2.664   0.382 -1.2984  2.2130  1.0706
  557SOL    HW2 2227   0.977   2.745   0.416 -1.6767  0.1356 -0.7079
  557SOL     MW 2228   1.049   2.701   0.441 -0.2286  0.1470  0.1888
  558SOL     OW 2229   0.252   2.087   3.074 -0.3278 -0.5950  0.1137
  558SOL    HW1 2230   0.217   2.007   3.099  1.3185  1.1349  1.8554
  558SOL    HW2 2231   0.202   2.144   3.125 -1.1934 -2.5827 -1.6642
  558SOL     MW 2232   0.241   2.084   3.084 -0.2248 -0.6290  0.1090
  559SOL     OW 2233   1.207   2.267   2.049 -0.2224  0.2528 -0.6087
  559SOL    HW1 2234   1.195   2.360   2.070  1.5087 -0.2440 -0.9517
  559SOL    HW2 2235   1.167   2.213   2.119 -1.8299 -1.1124  1.8744
  559SOL     MW 2236   1.200   2.272   2.061 -0.2061  0.0072 -0.3264
  560SOL     OW 2237   1.938   2.984   0.035 -0.5125 -0.4520 -0.1379
  560SOL    HW1 2238   2.010   3.002  -0.026 -1.0136  0.2153 -0.6329
  560SOL    HW2 2239   1.868   2.937  -0.010  0.4223 -0.2570  1.3151
  560SOL     MW 2240   1.938   2.980   0.021 -0.4553 -0.3382 -0.0115
  561SOL     OW 2241   0.476   2.088   0.160  0.4719  0.5170  0.5135
  561SOL    HW1 2242   0.408   2.090   0.083 -0.9311 -2.3257 -1.4935
  561SOL    HW2 2243   0.516   2.175   0.177 -1.7657 -2.8213 -1.5927
  561SOL     MW 2244   0.472   2.100   0.152 -0.0084 -0.2985 -0.0292
  562SOL     OW 2245   0.862   2.136   2.231  0.3809 -0.3874  0.2198
  562SOL    HW1 2246   0.832   2.230   2.248 -0.5490  1.4968 -0.5974
  562SOL    HW2 2247   0.956   2.140   2.252 -0.4202 -0.4840  1.6765
  562SOL     MW 2248   0.870   2.149   2.236  0.1525 -0.1516  0.3042
  563SOL     OW 2249   1.258   0.281   0.527 -0.5392 -0.2660  0.7590
  563SOL    HW1 2250   1.187   0.255   0.465 -0.0621  0.8783 -0.0630
  563SOL    HW2 2251   1.300   0.199   0.565  3.3840  1.4209 -0.7704
  563SOL     MW 2252   1.254   0.267   0.523  0.0413  0.1076  0.4488
  564SOL     OW 2253   1.003   2.598   2.319  0.3917  0.2403  0.2212
  564SOL    HW1 2254   1.036   2.605   2.232 -0.5456  0.6410  0.1022
  564SOL    HW2 2255   1.056   2.667   2.365  0.6594  1.0089 -2.5298
  564SOL     MW 2256   1.014   2.608   2.314  0.3034  0.3946 -0.1575
  565SOL     OW 2257   2.930   2.663   2.706 -0.5577 -0.1520  0.0167
  565SOL    HW1 2258   2.994   2.730   2.681  2.3297 -1.3791 -3.1330
  565SOL    HW2 2259   2.861   2.662   2.630 -0.5975  2.3893 -2.2301
  565SOL     MW 2260   2.929   2.672   2.693 -0.1820  0.0214 -0.6953
  566SOL     OW 2261   2.190   1.996   2.346  0.6708 -1.1237 -0.4790
  566SOL    HW1 2262   2.219   2.010   2.253  0.5082 -1.4629 -0.9157
  566SOL    HW2 2263   2.234   2.065   2.397 -0.9541  1.6201  0.0992
  566SOL     MW 2264   2.199   2.007   2.340  0.4349 -0.8064 -0.4603
  567SOL     OW 2265   1.188   2.926   0.081  0.2546  0.2578  0.1637
  567SOL    HW1 2266   1.198   3.014   0.114 -2.3676 -1.1647 -0.1596
  567SOL    HW2 2267   1.202   2.942  -0.011 -0.4935  2.0468 -0.4878
  567SOL     MW 2268   1.191   2.940   0.073 -0.1901  0.3061  0.0351
  568SOL     OW 2269   1.628   2.144   2.812  0.5573  0.0443  0.4128
  568SOL    HW1 2270   1.679   2.208   2.864  1.9494  2.0689  0.1867
  568SOL    HW2 2271   1.696   2.089   2.762 -1.4003 -1.5495  3.5503
  568SOL     MW 2272   1.644   2.145   2.812  0.4827  0.1011  0.7969
  569SOL     OW 2273   0.112   2.210   2.462  0.2083  0.5521 -0.0248
  569SOL    HW1 2274   0.055   2.275   2.413  0.4388 -1.0075  1.2081
  569SOL    HW2 2275   0.133   2.253   2.546 -2.5763 -1.3126  0.3158
  569SOL     MW 2276   0.107   2.224   2.467 -0.1287  0.1003  0.1828
  570SOL     OW 2277   1.516   0.392   0.461 -0.3155  0.4486  0.7323
  570SOL    HW1 2278   1.439   0.360   0.507  1.1675  1.3398 -1.1380
  570SOL    HW2 2279   1.580   0.402   0.528 -2.6302  0.8022 -0.0012
  570SOL     MW 2280   1.514   0.389   0.476 -0.4252  0.6129  0.3888
  571SOL     OW 2281   1.465   2.426   1.998  0.2290 -0.4091 -0.2753
  571SOL    HW1 2282   1.485   2.445   2.088 -2.2714  1.2497  0.2360
  571SOL    HW2 2283   1.439   2.334   1.986  1.6315 -0.3938 -2.0376
  571SOL     MW 2284   1.464   2.417   2.008  0.0841 -0.1882 -0.4404
  572SOL     OW 2285   0.898   2.556   3.064 -0.1781  0.5054 -0.0146
  572SOL    HW1 2286   0.898   2.609   2.981 -0.4538  0.5145 -0.3631
  572SOL    HW2 2287   0.822   2.573   3.121 -2.1383  0.2804  0.5353
  572SOL     MW 2288   0.888   2.565   3.060 -0.4731  0.4769  0.0120
  573SOL     OW 2289   1.115   2.399   0.175 -0.2012  0.0108  0.1084
  573SOL    HW1 2290   1.192   2.365   0.127  3.2222  2.2904 -1.3331
  573SOL    HW2 2291   1.132   2.489   0.180 -1.3607 -1.2169  1.8369
  573SOL     MW 2292   1.127   2.407   0.169  0.0975  0.1496  0.1462
  574SOL     OW 2293   1.210   2.673   0.203 -1.0130  0.4978 -0.3694
  574SOL    HW1 2294   1.292   2.675   0.254 -0.4274 -0.3194  0.8617
  574SOL    HW2 2295   1.205   2.757   0.163 -0.1045 -1.0144  1.8096
  574SOL     MW 2296   1.220   2.685   0.205 -0.8158  0.1905  0.0805
  575SOL     OW 2297   3.046   2.294   1.822  0.1840  0.2686  0.2268
  575SOL    HW1 2298   3.054   2.201   1.780  3.5461 -0.3409  2.4178
  575SOL    HW2 2299   3.109   2.359   1.775  1.8772 -0.3320 -1.3802
  575SOL     MW 2300   3.056   2.290   1.810  0.8510  0.1089  0.3039
  576SOL     OW 2301   2.816   1.809   2.032  0.1718 -0.4099 -0.0757
  576SOL    HW1 2302   2.835   1.885   1.976 -1.1500  1.2911  0.5324
  576SOL    HW2 2303   2.719   1.797   2.023 -0.3012  3.3959  1.2389
  576SOL     MW 2304   2.806   1.818   2.024 -0.0650  0.3166  0.1780
  577SOL     OW 2305   2.059   0.256   0.051  0.0272 -0.7556  0.2590
  577SOL    HW1 2306   1.997   0.322   0.027 -0.3514  0.2531 -0.1447
  577SOL    HW2 2307   2.007   0.214   0.112  1.1169 -1.2370 -0.9960
  577SOL     MW 2308   2.044   0.259   0.056  0.1210 -0.6860  0.0401
  578SOL     OW 2309   1.994   2.172   2.330  0.0561 -0.4989 -0.4504
  578SOL    HW1 2310   1.911   2.118   2.319  2.2124  1.5524  1.3376
  578SOL    HW2 2311   2.061   2.098   2.328  1.3204 -0.4291 -0.3229
  578SOL     MW 2312   1.991   2.155   2.329  0.5074 -0.2190 -0.1977
  579SOL     OW 2313   0.829   2.448   2.515 -0.1770 -0.2991 -0.0120
  579SOL    HW1 2314   0.848   2.398   2.600  0.8747  0.6166 -0.2829
  579SOL    HW2 2315   0.917   2.468   2.485  0.8519 -0.1017  0.5627
  579SOL     MW 2316   0.843   2.444   2.522  0.0975 -0.1522  0.0281
  580SOL     OW 2317   0.904   2.876   0.024 -0.0342  0.8863  0.2333
  580SOL    HW1 2318   0.994   2.837   0.012  1.6731 -1.0430  2.3514
  580SOL    HW2 2319   0.850   2.853  -0.050  1.3694 -0.5663  4.6887
  580SOL     MW 2320   0.909   2.868   0.013  0.3763  0.4401  1.1006
  581SOL     OW 2321   1.105   2.543   1.741 -0.0523 -0.1509  0.4611
  581SOL    HW1 2322   1.196   2.563   1.726 -1.0002 -0.8363 -0.2527
  581SOL    HW2 2323   1.101   2.450   1.748 -1.4523  0.3557 -0.3049
  581SOL     MW 2324   1.117   2.534   1.740 -0.3621 -0.1745  0.2658
  582SOL     OW 2325  -0.000   2.854   2.617  0.0831 -0.0542 -0.3533
  582SOL    HW1 2326   0.015   2.927   2.689 -0.2733 -0.0077  1.9789
  582SOL    HW2 2327   0.083   2.829   2.582 -0.8227 -1.3262 -0.9123
  582SOL     MW 2328   0.013   2.860   2.622 -0.0834 -0.2159 -0.1194
  583SOL     OW 2329   1.950   2.489   2.685  0.3214 -0.0084 -0.1776
  583SOL    HW1 2330   1.988   2.519   2.597  2.1858 -2.3679  0.0454
  583SOL    HW2 2331   1.959   2.394   2.686  1.4681 -0.4369  0.7118
  583SOL     MW 2332   1.956   2.480   2.673  0.7187 -0.3763 -0.0309
  584SOL     OW 2333   0.164   1.845   2.122 -0.3127  0.0439  0.5682
  584SOL    HW1 2334   0.249   1.854   2.072  1.3912 -1.0974  0.5909
  584SOL    HW2 2335   0.176   1.911   2.190  0.0204  1.0558 -0.7722
  584SOL     MW 2336   0.177   1.855   2.125 -0.0440  0.0268  0.3943
  585SOL     OW 2337   1.450   2.585   0.043  0.1146 -0.6077 -0.0507
  585SOL    HW1 2338   1.412   2.598  -0.048 -0.9748 -0.4834  0.3428
  585SOL    HW2 2339   1.410   2.661   0.097  2.7580  1.8049 -2.1301
  585SOL     MW 2340   1.440   2.597   0.038  0.3196 -0.2730 -0.2731
  586SOL     OW 2341   1.305   2.988   2.374 -0.4821  0.0912  0.0105
  586SOL    HW1 2342   1.362   2.911   2.365 -0.6584  0.8166 -2.0532
  586SOL    HW2 2343   1.306   3.020   2.466  0.7890  2.0795  1.8342
  586SOL     MW 2344   1.312   2.982   2.385 -0.3377  0.4492 -0.0212
  587SOL     OW 2345   1.190   1.631   2.202  0.2709  0.0829  0.1731
  587SOL    HW1 2346   1.186   1.538   2.235 -0.2780  0.5113 -0.1570
  587SOL    HW2 2347   1.174   1.620   2.110 -2.6213 -1.5403 -2.1628
  587SOL     MW 2348   1.187   1.617   2.194 -0.1831 -0.0747 -0.1786
  588SOL     OW 2349   1.379   2.191   2.715 -0.1835 -1.0729  0.4339
  588SOL    HW1 2350   1.455   2.156   2.749 -0.8938  1.3306 -3.4467
  588SOL    HW2 2351   1.320   2.178   2.791  0.4416  1.2894  0.3995
  588SOL     MW 2352   1.382   2.185   2.730 -0.1948 -0.4441 -0.0827
  589SOL     OW 2353   1.333   2.052   0.047  0.0563  0.0609  0.1566
  589SOL    HW1 2354   1.332   2.141   0.081 -0.9806  1.2054 -1.7506
  589SOL    HW2 2355   1.327   1.987   0.121  2.4997 -0.6488 -0.5373
  589SOL     MW 2356   1.332   2.055   0.061  0.2419  0.1183 -0.1866
  590SOL     OW 2357   0.452   2.581   2.235 -0.2213  0.2244 -0.1425
  590SOL    HW1 2358   0.399   2.572   2.156 -0.7359 -0.1882  0.3507
  590SOL    HW2 2359   0.523   2.639   2.214 -0.7492  0.4275 -0.3752
  590SOL     MW 2360   0.455   2.587   2.222 -0.3589  0.1968 -0.1081
  591SOL     OW 2361   2.240   0.700   3.034  0.4392  0.5235  0.2784
  591SOL    HW1 2362   2.161   0.747   3.018  2.3085  1.6930  0.3720
  591SOL    HW2 2363   2.298   0.717   2.960  1.9602  2.0758  1.0378
  591SOL     MW 2364   2.237   0.708   3.022  0.8865  0.8826  0.3909
  592SOL     OW 2365   1.847   2.930   0.853 -0.1647  0.4690  0.2310
  592SOL    HW1 2366   1.846   3.001   0.782 -1.1593 -0.8703 -3.2875
  592SOL    HW2 2367   1.892   2.843   0.825  1.8350  0.2078  0.9049
  592SOL     MW 2368   1.853   2.928   0.840 -0.0321  0.2579 -0.1443
  593SOL     OW 2369   1.940   0.802   0.850 -0.1768 -0.4858 -0.3894
  593SOL    HW1 2370   1.857   0.775   0.808 -3.1505 -0.1028 -1.3750
  593SOL    HW2 2371   1.975   0.718   0.880  1.5588 -0.2176 -1.1468
  593SOL     MW 2372   1.934   0.787   0.848 -0.3402 -0.3999 -0.6194
  594SOL     OW 2373   2.721   1.144   1.371  0.0557  0.3349  0.1693
  594SOL    HW1 2374   2.822   1.159   1.359  0.5661  4.8011 -0.3112
  594SOL    HW2 2375   2.688   1.106   1.287  2.4553 -1.5863 -0.5578
  594SOL     MW 2376   2.730   1.141   1.358  0.4397  0.6707  0.0100
  595SOL     OW 2377   0.418   0.973   0.755  0.3484 -0.1025 -0.1367
  595SOL    HW1 2378   0.475   1.013   0.681  1.5790  0.4513  0.1095
  595SOL    HW2 2379   0.447   1.034   0.818 -0.4295  0.4267 -1.4044
  595SOL     MW 2380   0.429   0.987   0.753  0.4081  0.0404 -0.2715
  596SOL     OW 2381   2.453   1.355   0.592 -0.5112  0.0892  0.1669
  596SOL    HW1 2382   2.478   1.437   0.543  1.1111  3.2816  0.3571
  596SOL    HW2 2383   2.529   1.329   0.645  0.1231  1.1731 -0.7070
  596SOL     MW 2384   2.466   1.363   0.592 -0.2135  0.6534  0.0767
  597SOL     OW 2385   2.186   0.648   1.705 -0.6204 -0.2732 -0.0426
  597SOL    HW1 2386   2.265   0.601   1.724 -1.6182  4.0118  1.0301
  597SOL    HW2 2387   2.148   0.612   1.620 -1.4707 -1.0747  0.8108
  597SOL     MW 2388   2.191   0.637   1.696 -0.8642  0.1864  0.2115
  598SOL     OW 2389   2.623   0.997   2.876  0.3935  0.0684 -0.1056
  598SOL    HW1 2390   2.641   0.956   2.795 -2.5116 -1.3911  3.5969
  598SOL    HW2 2391   2.694   1.060   2.875  0.9432  0.3649 -2.8877
  598SOL     MW 2392   2.635   1.000   2.865  0.0827 -0.0850  0.0158
  599SOL     OW 2393   2.904   0.372   2.009 -0.3686  0.2961 -0.6374
  599SOL    HW1 2394   2.904   0.366   2.105 -0.9569  1.6825 -1.9994
  599SOL    HW2 2395   2.968   0.437   1.978  1.8292 -0.4395  0.3048
  599SOL     MW 2396   2.913   0.379   2.018 -0.1562  0.3820 -0.6928
  600SOL     OW 2397   1.864   1.695   0.872 -0.4809  0.5289  0.4493
  600SOL    HW1 2398   1.864   1.677   0.968  0.8838 -0.0988 -0.5150
  600SOL    HW2 2399   1.778   1.732   0.850  2.3195  0.9833  2.1933
  600SOL     MW 2400   1.853   1.697   0.882  0.0687  0.5061  0.5522
  601SOL     OW 2401   2.516   0.801   0.878  0.5827  0.0477  0.2018
  601SOL    HW1 2402   2.538   0.783   0.971  1.4049  0.5984  0.2770
  601SOL    HW2 2403   2.424   0.787   0.872 -0.1930 -4.2168 -2.0470
  601SOL     MW 2404   2.507   0.797   0.890  0.5889 -0.4423 -0.0850
  602SOL     OW 2405   2.285   1.942   0.685  0.3938  0.0280 -0.2998
  602SOL    HW1 2406   2.232   1.876   0.735 -0.7903  0.9279 -0.6164
  602SOL    HW2 2407   2.226   1.994   0.630  0.2702 -2.0097 -0.9871
  602SOL     MW 2408   2.270   1.940   0.684  0.2212 -0.1222 -0.4323
  603SOL     OW 2409   3.002   1.395   1.841 -0.0670 -0.3908 -0.3945
  603SOL    HW1 2410   3.093   1.393   1.868  0.4702 -0.4044  2.2293
  603SOL    HW2 2411   2.977   1.301   1.817 -0.1208 -0.5644  1.8756
  603SOL     MW 2412   3.011   1.383   1.842 -0.0032 -0.4155  0.2512
  604SOL     OW 2413   2.073   1.554   0.496  0.7694 -0.1601 -0.6168
  604SOL    HW1 2414   2.085   1.484   0.566 -1.3602 -2.1383 -1.9760
  604SOL    HW2 2415   2.008   1.616   0.529 -2.5678 -0.8665 -0.2117
  604SOL     MW 2416   2.066   1.553   0.509  0.0481 -0.5143 -0.7427
  605SOL     OW 2417   2.664   1.565   0.863 -0.2902  0.3854  0.5366
  605SOL    HW1 2418   2.579   1.593   0.832  3.8890 -1.7660 -0.5032
  605SOL    HW2 2419   2.655   1.531   0.953  0.8301  1.1524 -0.7378
  605SOL     MW 2420   2.651   1.564   0.870  0.4090  0.2028  0.2313
  606SOL     OW 2421   2.539   1.771   1.999 -0.1618 -0.8102  0.0827
  606SOL    HW1 2422   2.447   1.784   1.982  1.3545  0.9668  1.0321
  606SOL    HW2 2423   2.563   1.701   1.927  2.3223 -2.1753  1.7621
  606SOL     MW 2424   2.530   1.764   1.987  0.3661 -0.7559  0.4296
  607SOL     OW 2425   2.333   1.031   3.001  0.1595 -0.2938  0.4665
  607SOL    HW1 2426   2.425   1.036   2.986 -0.0963  1.0713 -0.5732
  607SOL    HW2 2427   2.322   1.049   3.096 -1.7546 -0.0642  2.8018
  607SOL     MW 2428   2.343   1.034   3.011 -0.1268 -0.0834  0.6375
  608SOL     OW 2429   1.902   0.262   0.597 -0.5056  0.5555 -0.4438
  608SOL    HW1 2430   1.903   0.306   0.510 -1.4894  1.4304 -1.2943
  608SOL    HW2 2431   1.865   0.172   0.583  0.7136 -3.0269 -0.2617
  608SOL     MW 2432   1.897   0.256   0.584 -0.4746  0.1983 -0.5320
  609SOL     OW 2433   2.150   1.896   3.021 -0.0695 -0.0262  0.3782
  609SOL    HW1 2434   2.059   1.868   2.996  0.8419 -2.0421 -0.4973
  609SOL    HW2 2435   2.165   1.886   3.115 -1.1192 -1.8943 -1.1284
  609SOL     MW 2436   2.140   1.891   3.030 -0.0877 -0.5387  0.0639
  610SOL     OW 2437   1.845   1.100   1.357  0.2269 -0.0976  0.0235
  610SOL    HW1 2438   1.883   1.040   1.291  2.0377 -0.0947  0.1023
  610SOL    HW2 2439   1.771   1.053   1.398  1.9274 -0.7507 -2.5431
  610SOL     MW 2440   1.840   1.086   1.353  0.6902 -0.1834 -0.3048
  611SOL     OW 2441   2.451   1.698   0.722 -0.4348 -0.5648 -0.1257
  611SOL    HW1 2442   2.410   1.773   0.681 -1.0766  1.0171 -2.5444
  611SOL    HW2 2443   2.470   1.639   0.657  0.2913 -1.1495  1.7439
  611SOL     MW 2444   2.448   1.700   0.708 -0.4237 -0.4332 -0.1981
  612SOL     OW 2445   2.785   2.808   0.450  0.0632 -0.1651  0.2130
  612SOL    HW1 2446   2.819   2.841   0.539 -0.4919  1.1979  0.8712
  612SOL    HW2 2447   2.868   2.798   0.401 -0.2877 -2.7983  0.1883
  612SOL     MW 2448   2.800   2.811   0.456 -0.0564 -0.3327  0.2966
  613SOL     OW 2449   1.625   1.003   1.113 -0.4214  0.3303  0.2986
  613SOL    HW1 2450   1.608   1.089   1.145  0.8554  1.5250  0.9400
  613SOL    HW2 2451   1.719   0.990   1.134 -0.3465  0.4373 -0.9264
  613SOL     MW 2452   1.635   1.013   1.120 -0.2430  0.5021  0.2216
  614SOL     OW 2453   2.021   0.551   1.504  0.8648  0.1589 -0.3966
  614SOL    HW1 2454   2.029   0.470   1.557  0.5524 -1.2711 -1.9538
  614SOL    HW2 2455   2.049   0.537   1.413 -0.6807 -2.8752  0.9494
  614SOL     MW 2456   2.026   0.538   1.499  0.6197 -0.4301 -0.4245
  615SOL     OW 2457   2.234   0.822   0.195  0.4883 -0.2095 -0.2065
  615SOL    HW1 2458   2.269   0.771   0.264 -0.4428  1.6921 -1.6509
  615SOL    HW2 2459   2.266   0.782   0.115  1.0039  0.4012  0.2025
  615SOL     MW 2460   2.243   0.810   0.194  0.4335  0.1219 -0.3431
  616SOL     OW 2461   2.583   0.430   1.594 -0.5803  0.2950 -0.4143
  616SOL    HW1 2462   2.537   0.376   1.531  0.3428  0.0453  0.9875
  616SOL    HW2 2463   2.636   0.493   1.538  0.3317 -1.3812 -2.7322
  616SOL     MW 2464   2.584   0.431   1.579 -0.3382  0.0409 -0.5351
  617SOL     OW 2465   2.903   0.553   1.752 -0.5627 -0.6326  0.1520
  617SOL    HW1 2466   2.815   0.585   1.790 -1.8991 -0.8290  0.6003
  617SOL    HW2 2467   2.893   0.462   1.713 -0.5222 -0.2192 -2.8919
  617SOL     MW 2468   2.890   0.545   1.752 -0.7336 -0.6039 -0.1905
  618SOL     OW 2469   2.645   0.367   1.937  0.2816 -0.1118 -0.4020
  618SOL    HW1 2470   2.629   0.459   1.954  0.5246  1.2329 -1.1726
  618SOL    HW2 2471   2.733   0.359   1.974 -0.3074 -0.4469  0.7796
  618SOL     MW 2472   2.654   0.378   1.944  0.2360  0.0214 -0.3478
  619SOL     OW 2473   2.606   0.890   0.149 -0.0806 -0.4318  0.2929
  619SOL    HW1 2474   2.700   0.890   0.165  2.2391 -1.7258 -0.2102
  619SOL    HW2 2475   2.567   0.851   0.228 -0.5057  0.7201 -0.4033
  619SOL     MW 2476   2.613   0.885   0.161  0.1693 -0.4506  0.1347
  620SOL     OW 2477   2.284   1.082   0.925 -0.1858  0.1572  0.1481
  620SOL    HW1 2478   2.344   1.100   0.852  0.2752 -1.5389  0.5065
  620SOL    HW2 2479   2.258   0.993   0.911  0.0952 -1.7461  1.6569
  620SOL     MW 2480   2.288   1.073   0.914 -0.0879 -0.3177  0.3945
  621SOL     OW 2481   1.483   2.121   1.982 -0.5142 -0.4449 -0.2272
  621SOL    HW1 2482   1.408   2.063   1.992  1.1988 -1.1331  0.5703
  621SOL    HW2 2483   1.528   2.115   2.063  0.0085  4.7113  0.8678
  621SOL     MW 2484   1.479   2.112   1.994 -0.2192  0.1446  0.0225
  622SOL     OW 2485   2.624   0.161   0.176  0.0939 -0.1565  0.3837
  622SOL    HW1 2486   2.715   0.188   0.198 -1.5542 -1.2041  0.5800
  622SOL    HW2 2487   2.617   0.066   0.138 -3.6014 -0.6996  0.0948
  622SOL     MW 2488   2.635   0.152   0.174 -0.6111 -0.3664  0.3715
  623SOL     OW 2489   2.372   2.790   0.842 -0.2586 -0.0804 -0.1241
  623SOL    HW1 2490   2.435   2.860   0.845 -3.1389  1.0058 -0.5407
  623SOL    HW2 2491   2.316   2.808   0.915  0.2117 -1.9717 -0.0186
  623SOL     MW 2492   2.373   2.801   0.852 -0.5766 -0.1866 -0.1652
  624SOL     OW 2493   2.237   1.648   3.010  0.0128 -0.3357  0.5892
  624SOL    HW1 2494   2.157   1.604   3.029  1.8962  0.3176  1.4914
  624SOL    HW2 2495   2.217   1.742   3.007  0.3547 -0.8590 -0.1014
  624SOL     MW 2496   2.224   1.655   3.012  0.3064 -0.3185  0.6171
  625SOL     OW 2497   2.186   1.890   1.072 -0.4483 -0.2565  0.1639
  625SOL    HW1 2498   2.240   1.853   1.142  1.5064 -1.2444  0.7201
  625SOL    HW2 2499   2.234   1.888   0.990 -1.2555  1.5291  1.2591
  625SOL     MW 2500   2.200   1.885   1.071 -0.2969 -0.1513  0.3818
  626SOL     OW 2501   0.154   1.544   2.389  0.5365  0.1508 -0.0664
  626SOL    HW1 2502   0.107   1.510   2.311  1.0736 -0.9108 -1.1501
  626SOL    HW2 2503   0.078   1.573   2.447 -0.8471 -4.9501 -1.4710
  626SOL     MW 2504   0.137   1.543   2.386  0.4248 -0.6623 -0.3947
  627SOL     OW 2505   2.445   0.851   2.554  0.0243 -0.5031  0.1259
  627SOL    HW1 2506   2.386   0.931   2.546  2.9020  0.6518  0.7935
  627SOL    HW2 2507   2.420   0.791   2.478  1.8092  0.2036  0.0583
  627SOL     MW 2508   2.434   0.853   2.543  0.6395 -0.2575  0.2051
  628SOL     OW 2509   2.304   1.366   1.379 -0.6932  0.1314 -0.0336
  628SOL    HW1 2510   2.285   1.312   1.300  2.5150 -0.9067  2.5128
  628SOL    HW2 2511   2.399   1.380   1.383  1.3008  0.1032  1.4188
  628SOL     MW 2512   2.314   1.361   1.369 -0.0068 -0.0093  0.4940
  629SOL     OW 2513   2.002   0.555   1.187 -0.0895  0.0179  0.4755
  629SOL    HW1 2514   2.080   0.613   1.190 -2.3467  0.0904  0.9221
  629SOL    HW2 2515   1.930   0.610   1.225  1.9563 -0.7097  1.0561
  629SOL     MW 2516   2.003   0.570   1.193 -0.1174 -0.0686  0.6110
  630SOL     OW 2517   2.515   1.789   3.067  0.2693  0.2401 -0.1953
  630SOL    HW1 2518   2.443   1.820   3.010 -0.7069 -0.1941 -3.1348
  630SOL    HW2 2519   2.481   1.702   3.104  2.8125 -0.0748 -0.5503
  630SOL     MW 2520   2.501   1.782   3.065  0.4760  0.1412 -0.6300
  631SOL     OW 2521   1.970   1.786   1.609  0.6298  0.3785 -0.1122
  631SOL    HW1 2522   1.999   1.693   1.648 -1.7698 -0.3569  1.7455
  631SOL    HW2 2523   1.961   1.763   1.516  0.2292 -2.1692 -3.2541
  631SOL     MW 2524   1.973   1.770   1.602  0.2604 -0.0546 -0.2816
  632SOL     OW 2525   0.201   2.092   1.576 -0.6914  0.5865 -0.0347
  632SOL    HW1 2526   0.131   2.122   1.634  1.7884 -1.0661  0.2620
  632SOL    HW2 2527   0.165   2.013   1.543 -1.9861 -1.7196  0.6544
  632SOL     MW 2528   0.187   2.086   1.580 -0.5350  0.0642  0.0954
  633SOL     OW 2529   2.417   0.679   0.361 -0.0035  0.4385 -0.2720
  633SOL    HW1 2530   2.504   0.656   0.384  0.0910 -2.6664  0.7152
  633SOL    HW2 2531   2.365   0.600   0.375  0.9085 -1.7794 -1.8636
  633SOL     MW 2532   2.421   0.666   0.366  0.1293 -0.2638 -0.3517
  634SOL     OW 2533   2.647   3.086   0.624  0.1704 -0.4149  0.1320
  634SOL    HW1 2534   2.688   3.176   0.610 -1.4316  0.1046 -1.3167
  634SOL    HW2 2535   2.605   3.063   0.543 -0.1553  0.8994  0.2117
  634SOL     MW 2536   2.647   3.094   0.611 -0.0839 -0.1729 -0.0486
  635SOL     OW 2537   2.628   0.126   1.805  0.1535  0.4052 -0.0942
  635SOL    HW1 2538   2.708   0.102   1.760 -0.0370  0.2711  0.4132
  635SOL    HW2 2539   2.652   0.203   1.855  3.0390 -1.1460 -0.3449
  635SOL     MW 2540   2.641   0.133   1.806  0.5091  0.1829 -0.0603
  636SOL     OW 2541   2.921   1.637   0.973  0.3980  0.3404 -0.5203
  636SOL    HW1 2542   2.831   1.667   0.958 -0.8132 -3.0187  4.8060
  636SOL    HW2 2543   2.948   1.688   1.051  1.2824  0.0667  2.4100
  636SOL     MW 2544   2.913   1.648   0.981  0.3549 -0.1389  0.5691
  637SOL     OW 2545   2.906   1.492   0.718  0.0366 -0.1108 -0.2399
  637SOL    HW1 2546   2.963   1.561   0.737 -1.0776 -2.7330 -1.2088
  637SOL    HW2 2547   2.831   1.518   0.769 -0.0416  0.3105 -1.8186
  637SOL     MW 2548   2.904   1.505   0.728 -0.1207 -0.4012 -0.5760
  638SOL     OW 2549   2.650   0.670   0.514  0.2114 -0.2907 -0.4944
  638SOL    HW1 2550   2.739   0.681   0.477 -1.0281 -1.0243 -0.7387
  638SOL    HW2 2551   2.652   0.602   0.580  0.9815  0.5498  0.1054
  638SOL     MW 2552   2.662   0.663   0.518  0.1494 -0.2766 -0.4475
  639SOL     OW 2553   1.800   3.096   0.637  0.2247  0.3137 -0.6350
  639SOL    HW1 2554   1.710   3.122   0.602  0.4041  0.7356 -1.8612
  639SOL    HW2 2555   1.828   3.050   0.557 -0.1376 -1.0157  1.7000
  639SOL     MW 2556   1.792   3.093   0.622  0.2006  0.1940 -0.4887
  640SOL     OW 2557   0.380   1.355   0.085 -0.0047  0.4878  0.0348
  640SOL    HW1 2558   0.401   1.406   0.005  1.6021 -0.1840 -1.7591
  640SOL    HW2 2559   0.323   1.279   0.052 -2.9406  0.5041 -0.3334
  640SOL     MW 2560   0.375   1.351   0.070 -0.1801  0.4014 -0.2505
  641SOL     OW 2561   2.270   0.455   0.365 -0.7361 -0.0308  0.1411
  641SOL    HW1 2562   2.286   0.411   0.282 -1.0416  0.3182 -1.6762
  641SOL    HW2 2563   2.331   0.410   0.429 -1.2521 -0.6982 -1.4050
  641SOL     MW 2564   2.280   0.443   0.363 -0.8445 -0.0728 -0.3027
  642SOL     OW 2565   0.032   0.026   0.535 -0.0994 -0.4421  0.5807
  642SOL    HW1 2566   0.014   0.107   0.490 -0.6112 -0.0748  0.6734
  642SOL    HW2 2567  -0.054  -0.016   0.541 -1.6297 -0.4687  1.7240
  642SOL     MW 2568   0.019   0.031   0.530 -0.3689 -0.3971  0.7438
  643SOL     OW 2569   2.012   0.315   1.668 -0.1534  0.7941  0.2006
  643SOL    HW1 2570   2.093   0.310   1.718  0.5694 -2.2487 -1.8177
  643SOL    HW2 2571   2.028   0.247   1.601 -0.1303 -1.9166  1.0851
  643SOL     MW 2572   2.024   0.306   1.666 -0.0550  0.0350  0.0510
  644SOL     OW 2573   2.708   1.844   0.979 -0.0952 -0.0912  0.4421
  644SOL    HW1 2574   2.669   1.819   1.060  0.7894 -3.2191 -0.9331
  644SOL    HW2 2575   2.643   1.844   0.912 -0.2347  0.3619 -1.4309
  644SOL     MW 2576   2.695   1.840   0.981  0.0031 -0.4441  0.0135
  645SOL     OW 2577   2.788   0.897   0.647  0.4803 -0.4952  0.2358
  645SOL    HW1 2578   2.842   0.837   0.703  1.1442  0.3543 -0.1380
  645SOL    HW2 2579   2.716   0.841   0.617 -1.1953 -0.5529  2.2933
  645SOL     MW 2580   2.786   0.882   0.651  0.3468 -0.3907  0.4579
  646SOL     OW 2581   0.179   2.261   0.872  0.1197 -0.0297  0.0570
  646SOL    HW1 2582   0.212   2.173   0.865 -2.3811  0.0734 -2.9053
  646SOL    HW2 2583   0.139   2.271   0.785  3.5964 -1.0339  1.1851
  646SOL     MW 2584   0.178   2.251   0.859  0.2484 -0.1486 -0.1850
  647SOL     OW 2585   2.732   0.533   2.979 -0.3963  0.1128 -0.1081
  647SOL    HW1 2586   2.660   0.500   3.026  0.6900  0.7795  0.2372
  647SOL    HW2 2587   2.711   0.619   2.962 -0.2342 -1.9318  1.9294
  647SOL     MW 2588   2.720   0.540   2.983 -0.2316 -0.0690  0.2063
  648SOL     OW 2589   2.215   0.713   1.173  0.0802 -0.3678  0.7238
  648SOL    HW1 2590   2.216   0.755   1.082 -1.5070  1.6470  1.3894
  648SOL    HW2 2591   2.223   0.784   1.236  2.3170 -2.0360  1.7929
  648SOL     MW 2592   2.216   0.728   1.169  0.1659 -0.3221  0.9527
  649SOL     OW 2593   2.371   2.707   1.236  0.4703  0.2337  0.5521
  649SOL    HW1 2594   2.464   2.733   1.243 -0.1981 -0.2974  0.0130
  649SOL    HW2 2595   2.375   2.616   1.198 -0.7684  1.2560  2.5246
  649SOL     MW 2596   2.384   2.699   1.232  0.2186  0.2985  0.7412
  650SOL     OW 2597   2.771   0.230   0.613  0.7707  0.1479  0.2560
  650SOL    HW1 2598   2.810   0.248   0.702  0.9260  0.9865  0.6279
  650SOL    HW2 2599   2.838   0.263   0.553  1.7384  1.2071 -0.7445
  650SOL     MW 2600   2.785   0.236   0.617  0.9188  0.3983  0.1731
  651SOL     OW 2601   2.958   0.328   0.843 -0.1942  0.3766 -0.0896
  651SOL    HW1 2602   3.002   0.341   0.761  0.4016  0.4003 -1.5254
  651SOL    HW2 2603   2.946   0.419   0.878  0.3026  0.6439  0.3622
  651SOL     MW 2604   2.962   0.342   0.837 -0.0500  0.4150 -0.2194
  652SOL     OW 2605   2.359   1.427   2.934 -0.3632  0.5095  0.4866
  652SOL    HW1 2606   2.422   1.442   2.858  2.3613  0.3934 -0.7129
  652SOL    HW2 2607   2.315   1.511   2.948 -0.7832 -0.7533 -1.6172
  652SOL     MW 2608   2.362   1.440   2.926 -0.0591  0.3276  0.0508
  653SOL     OW 2609   1.965   0.410   0.373  0.2615  0.5938  0.0634
  653SOL    HW1 2610   1.954   0.389   0.280 -2.7919  3.5086 -1.3414
  653SOL    HW2 2611   2.054   0.431   0.386  0.4213 -1.8515 -0.3358
  653SOL     MW 2612   1.975   0.410   0.362 -0.1203  0.6557 -0.1746
  654SOL     OW 2613   2.468   1.024   0.704  0.3838  0.2681 -0.4965
  654SOL    HW1 2614   2.396   0.988   0.652 -0.0509  0.0875  1.7587
  654SOL    HW2 2615   2.508   0.950   0.756 -0.3804  3.0067  2.0253
  654SOL     MW 2616   2.464   1.010   0.704  0.2256  0.6056  0.1338
  655SOL     OW 2617   3.033   0.911   0.437 -0.4995  0.0613  0.0979
  655SOL    HW1 2618   3.027   0.954   0.523 -0.8266 -2.4486  0.6986
  655SOL    HW2 2619   2.995   0.822   0.460  1.8550  0.3134 -0.3494
  655SOL     MW 2620   3.027   0.905   0.452 -0.2320 -0.2366  0.1181
  656SOL     OW 2621   1.951   2.785   1.222 -0.3198 -0.5315  0.1291
  656SOL    HW1 2622   1.940   2.857   1.284 -3.0531  0.3990  1.8383
  656SOL    HW2 2623   1.982   2.720   1.276 -0.3027  2.0013 -0.1354
  656SOL     MW 2624   1.953   2.786   1.237 -0.6782 -0.0746  0.3197
  657SOL     OW 2625   0.239   1.519   1.229  0.3826 -0.6831  0.2863
  657SOL    HW1 2626   0.144   1.504   1.225  0.0193  1.1171 -0.8725
  657SOL    HW2 2627   0.256   1.570   1.153 -1.7001 -0.1652  0.1328
  657SOL     MW 2628   0.229   1.524   1.218  0.0599 -0.3772  0.1131
  658SOL     OW 2629   2.702   1.390   0.250  0.1638 -0.1779 -0.2511
  658SOL    HW1 2630   2.643   1.329   0.296 -0.2204 -1.3186 -1.1668
  658SOL    HW2 2631   2.741   1.451   0.313 -2.8504  0.1169 -1.4420
  658SOL     MW 2632   2.699   1.390   0.264 -0.2846 -0.2895 -0.5291
  659SOL     OW 2633   2.230   1.556   1.027  0.0397  0.1055 -0.5021
  659SOL    HW1 2634   2.321   1.528   1.063  2.1907  0.4072  0.7929
  659SOL    HW2 2635   2.186   1.554   1.114  0.7266 -0.6141 -3.9516
  659SOL     MW 2636   2.236   1.552   1.043  0.4141  0.0504 -0.7863
  660SOL     OW 2637   2.032   1.549   1.716  0.6822 -0.0405  0.4003
  660SOL    HW1 2638   2.056   1.557   1.808  0.7611 -2.1101 -1.3381
  660SOL    HW2 2639   2.007   1.461   1.710  3.9801  2.6007  0.6212
  660SOL     MW 2640   2.032   1.539   1.727  1.1278  0.0349  0.2001
  661SOL     OW 2641   2.368   1.129   0.158  0.6927 -0.0442  0.0999
  661SOL    HW1 2642   2.444   1.156   0.210 -1.0338  0.8431 -2.5336
  661SOL    HW2 2643   2.346   1.045   0.202 -0.2053 -1.7334  1.1230
  661SOL     MW 2644   2.375   1.121   0.171  0.3464 -0.1500 -0.1126
  662SOL     OW 2645   2.540   3.009   0.874  0.3550 -0.6446  0.3499
  662SOL    HW1 2646   2.483   3.072   0.925  0.0685  0.7673  1.1810
  662SOL    HW2 2647   2.564   3.058   0.796  0.2979 -1.3913 -0.1725
  662SOL     MW 2648   2.535   3.024   0.870  0.3097 -0.5568  0.3907
  663SOL     OW 2649   2.815   1.564   0.438  0.6681  0.4493  0.0327
  663SOL    HW1 2650   2.876   1.627   0.407 -2.5098 -1.5684  1.2870
  663SOL    HW2 2651   2.831   1.543   0.532 -0.0147  1.5393  0.3399
  663SOL     MW 2652   2.825   1.570   0.446  0.1587  0.3269  0.2387
  664SOL     OW 2653   2.483   1.586   1.552  0.4200  0.3920 -0.4666
  664SOL    HW1 2654   2.460   1.681   1.561 -2.2029  0.4378 -1.2289
  664SOL    HW2 2655   2.416   1.538   1.601 -1.1490  0.2906  2.1835
  664SOL     MW 2656   2.471   1.592   1.560 -0.1331  0.3846 -0.2175
  665SOL     OW 2657   2.866   0.799   2.035 -0.5660  0.2389 -0.1015
  665SOL    HW1 2658   2.849   0.838   1.947 -2.1726 -1.7716 -1.7626
  665SOL    HW2 2659   2.944   0.751   2.016 -1.8126 -1.0595  0.2983
  665SOL     MW 2660   2.874   0.798   2.021 -0.9424 -0.1977 -0.2679
  666SOL     OW 2661   2.802   3.000   1.683 -0.4494  0.5564  0.2186
  666SOL    HW1 2662   2.782   2.992   1.590 -2.8526 -0.7024  0.8115
  666SOL    HW2 2663   2.748   2.936   1.727  0.7879  1.2773 -2.2064
  666SOL     MW 2664   2.793   2.991   1.677 -0.6033  0.4855 -0.0231
  667SOL     OW 2665   1.942   2.690   1.612  0.4903 -0.0901 -1.0395
  667SOL    HW1 2666   1.970   2.633   1.683  0.9491  1.7419 -1.9767
  667SOL    HW2 2667   2.016   2.753   1.601 -0.8744 -0.7826 -0.8527
  667SOL     MW 2668   1.956   2.691   1.620  0.3708  0.0603 -1.1385
  668SOL     OW 2669   2.747   0.635   0.806  0.1995  0.0133  0.4028
  668SOL    HW1 2670   2.818   0.635   0.873  1.6201  2.9760  0.8435
  668SOL    HW2 2671   2.666   0.681   0.832  2.2806 -0.1406 -4.8066
  668SOL     MW 2672   2.746   0.641   0.818  0.6615  0.3839 -0.2264
  669SOL     OW 2673   0.148   0.922   0.726 -0.2462 -0.3864  0.1672
  669SOL    HW1 2674   0.098   0.997   0.767 -0.5536 -0.3919 -1.4240
  669SOL    HW2 2675   0.241   0.949   0.741  3.1483  3.2094 -1.3507
  669SOL     MW 2676   0.154   0.936   0.733  0.1611  0.0873 -0.2430
  670SOL     OW 2677   2.905   0.277   0.241  0.4381 -0.0708 -0.2330
  670SOL    HW1 2678   2.924   0.209   0.175  1.4280  0.1798 -0.5916
  670SOL    HW2 2679   2.910   0.361   0.190 -0.0994  1.7332 -1.5512
  670SOL     MW 2680   2.908   0.279   0.226  0.4978  0.2003 -0.4543
  671SOL     OW 2681   2.161  -0.001   1.617  0.1561 -0.2606 -0.0561
  671SOL    HW1 2682   2.140   0.072   1.557 -1.2228  0.1681  0.4140
  671SOL    HW2 2683   2.070  -0.012   1.651 -0.0509  2.5773  2.5116
  671SOL     MW 2684   2.146   0.007   1.613 -0.0531  0.1704  0.3447
  672SOL     OW 2685   1.882   1.709   1.357 -0.4250 -0.2239 -0.2775
  672SOL    HW1 2686   1.792   1.706   1.363  3.6707  0.9473 -2.1599
  672SOL    HW2 2687   1.896   1.751   1.270  0.4053  0.5132 -0.5078
  672SOL     MW 2688   1.872   1.714   1.346  0.2249  0.0279 -0.5563
  673SOL     OW 2689   2.788   1.108   0.465 -0.1853 -0.0947 -0.5419
  673SOL    HW1 2690   2.800   1.030   0.527 -1.3098  2.6877  3.0799
  673SOL    HW2 2691   2.879   1.153   0.463 -0.5241  0.5054 -0.9583
  673SOL     MW 2692   2.802   1.103   0.473 -0.3784  0.3516 -0.1189
  674SOL     OW 2693   2.487   0.021   1.283  0.8784  0.5782 -0.2415
  674SOL    HW1 2694   2.455   0.039   1.192  0.5742 -0.5284  2.1725
  674SOL    HW2 2695   2.514  -0.069   1.292  2.6955 -0.0913  0.6518
  674SOL     MW 2696   2.487   0.011   1.272  1.0780  0.3439  0.1948
  675SOL     OW 2697   2.965   1.063   1.096  0.1070  0.2942  0.1982
  675SOL    HW1 2698   3.030   1.040   1.169  3.0331 -1.4111 -0.4179
  675SOL    HW2 2699   3.011   1.029   1.018 -3.1412  1.0259 -0.2761
  675SOL     MW 2700   2.980   1.056   1.096  0.0645  0.1657  0.0543
  676SOL     OW 2701   2.814   1.482   1.633 -0.6500 -0.5559  0.0119
  676SOL    HW1 2702   2.759   1.409   1.634  2.1010  1.2777 -1.6323
  676SOL    HW2 2703   2.888   1.463   1.691  3.4448 -3.3296 -4.3563
  676SOL     MW 2704   2.817   1.469   1.641  0.2533 -0.6800 -0.7814
  677SOL     OW 2705   2.477   0.832   1.866 -0.3426 -0.5336  0.3551
  677SOL    HW1 2706   2.416   0.859   1.801 -0.7398  1.5816  1.0138
  677SOL    HW2 2707   2.417   0.834   1.948  0.2197  0.2764 -0.5625
  677SOL     MW 2708   2.461   0.836   1.868 -0.3208 -0.1476  0.3209
  678SOL     OW 2709   2.483   1.585   0.453 -0.0222 -0.0490 -0.1652
  678SOL    HW1 2710   2.422   1.645   0.410 -1.2839 -0.2661  0.7854
  678SOL    HW2 2711   2.564   1.611   0.407 -0.6518  1.2169  1.3377
  678SOL     MW 2712   2.485   1.596   0.441 -0.2718  0.0894  0.1585
  679SOL     OW 2713   2.412   0.505   1.163 -0.1134 -0.0680 -0.5621
  679SOL    HW1 2714   2.356   0.429   1.164  1.8161 -0.7875 -1.4871
  679SOL    HW2 2715   2.346   0.578   1.165  1.0570  1.0517  0.0246
  679SOL     MW 2716   2.396   0.505   1.164  0.2956 -0.0152 -0.6067
  680SOL     OW 2717   2.409   0.266   1.461  0.0776  0.5065  0.0376
  680SOL    HW1 2718   2.372   0.239   1.545  0.7666 -1.3466 -2.5508
  680SOL    HW2 2719   2.424   0.183   1.410 -1.2197 -0.6470 -0.5732
  680SOL     MW 2720   2.406   0.252   1.465 -0.0027  0.1098 -0.3845
  681SOL     OW 2721   0.294   0.500   1.565  0.3354  0.2996  0.1090
  681SOL    HW1 2722   0.297   0.418   1.616 -1.5056  1.5163 -1.6585
  681SOL    HW2 2723   0.389   0.523   1.564  1.6120 -0.1109  0.2062
  681SOL     MW 2724   0.307   0.492   1.571  0.2609  0.4060 -0.1114
  682SOL     OW 2725   0.106   3.007   1.467  0.2504  0.6398 -0.0620
  682SOL    HW1 2726   0.112   3.096   1.479  2.9311  0.0387 -2.7752
  682SOL    HW2 2727   0.054   2.977   1.544  0.5728 -2.4816 -0.2398
  682SOL     MW 2728   0.100   3.015   1.479  0.6466  0.1486 -0.4435
  683SOL     OW 2729   1.987   0.817   3.001  0.5730  0.1343 -0.1343
  683SOL    HW1 2730   1.897   0.793   2.984 -0.7777 -1.6788  1.9329
  683SOL    HW2 2731   1.991   0.903   3.043  0.3890  1.5067  0.8858
  683SOL     MW 2732   1.976   0.825   3.004  0.3705  0.0762  0.2730
  684SOL     OW 2733   2.152   1.741   0.810  0.5062 -0.2477  0.6360
  684SOL    HW1 2734   2.057   1.731   0.833 -0.9709  0.6380  1.0545
  684SOL    HW2 2735   2.205   1.675   0.858  2.2776  0.3692  2.1796
  684SOL     MW 2736   2.146   1.731   0.820  0.5450 -0.0494  0.8949
  685SOL     OW 2737   2.575   1.750   1.204 -0.7324  0.0096  0.3062
  685SOL    HW1 2738   2.630   1.734   1.277 -1.3529  0.4488 -0.4352
  685SOL    HW2 2739   2.566   1.664   1.168 -0.5984 -1.3422  1.3738
  685SOL     MW 2740   2.581   1.736   1.209 -0.7966 -0.1108  0.3492
  686SOL     OW 2741   2.951   0.698   1.502 -0.2964 -0.1986 -0.9468
  686SOL    HW1 2742   2.956   0.651   1.583  0.3629 -1.6005 -1.6355
  686SOL    HW2 2743   3.035   0.687   1.459 -0.4865  1.2332 -1.5619
  686SOL     MW 2744   2.963   0.691   1.507 -0.2345 -0.1947 -1.1188
  687SOL     OW 2745   2.156   0.323   1.179 -0.0887 -0.2582  0.2308
  687SOL    HW1 2746   2.142   0.264   1.105  1.7060 -0.4950 -0.5006
  687SOL    HW2 2747   2.083   0.385   1.180 -2.9961 -1.2191 -0.0710
  687SOL     MW 2748   2.144   0.324   1.170 -0.2355 -0.4162  0.0945
  688SOL     OW 2749   2.344   0.564   1.416 -0.1269  0.2535 -0.3586
  688SOL    HW1 2750   2.368   0.469   1.419  0.3178 -0.9543 -0.2931
  688SOL    HW2 2751   2.383   0.585   1.334 -2.0930  2.2180 -1.3100
  688SOL     MW 2752   2.352   0.554   1.405 -0.3276  0.3534 -0.4755
  689SOL     OW 2753   2.554   0.761   2.989  0.2611  0.1570 -0.1518
  689SOL    HW1 2754   2.576   0.848   2.958 -0.8522 -0.7214  0.5618
  689SOL    HW2 2755   2.549   0.775   3.088  2.4112  0.3401 -0.3633
  689SOL     MW 2756   2.556   0.775   2.998  0.3979  0.0653 -0.0856
  690SOL     OW 2757   2.039   1.018   1.986  0.6331  0.3351 -0.2660
  690SOL    HW1 2758   1.996   0.927   1.989 -1.6402  0.1227 -1.9437
  690SOL    HW2 2759   2.094   1.000   1.906  2.6816 -0.0151 -1.8666
  690SOL     MW 2760   2.041   1.004   1.976  0.6034  0.2608 -0.6985
  691SOL     OW 2761   2.441   0.292   0.824 -0.0611 -0.5865 -0.1259
  691SOL    HW1 2762   2.523   0.330   0.863  0.9912 -1.9011 -1.3687
  691SOL    HW2 2763   2.363   0.353   0.834 -2.2235 -1.4066 -0.2597
  691SOL     MW 2764   2.442   0.305   0.831 -0.2075 -0.8682 -0.3075
  692SOL     OW 2765   2.762   1.665   1.410  0.2219  0.2991 -0.7290
  692SOL    HW1 2766   2.769   1.595   1.476 -2.2711  1.0213  2.6961
  692SOL    HW2 2767   2.814   1.748   1.442 -0.4728 -1.1385  0.1528
  692SOL     MW 2768   2.770   1.667   1.423 -0.1987  0.2047 -0.1607
  693SOL     OW 2769   2.286   0.411   0.091 -0.2218 -0.4665  0.2568
  693SOL    HW1 2770   2.204   0.355   0.100 -0.3327  0.2054  0.8316
  693SOL    HW2 2771   2.264   0.502   0.064  1.3728 -1.6653  3.2590
  693SOL     MW 2772   2.273   0.416   0.088 -0.0261 -0.5360  0.7288
  694SOL     OW 2773   1.994   1.292   1.204  0.4138 -0.5854 -0.4248
  694SOL    HW1 2774   2.078   1.248   1.193  0.4641  0.9985  0.3217
  694SOL    HW2 2775   1.928   1.232   1.235 -1.5150  2.7123 -1.0697
  694SOL     MW 2776   1.996   1.278   1.207  0.1660  0.0587 -0.4114
  695SOL     OW 2777   2.989   1.492   1.320 -0.5942  0.0681  0.2598
  695SOL    HW1 2778   2.945   1.449   1.250  0.7055 -0.9827 -1.2469
  695SOL    HW2 2779   2.921   1.557   1.345 -0.2583  0.9238 -1.0879
  695SOL     MW 2780   2.974   1.495   1.314 -0.3784  0.0424 -0.1168
  696SOL     OW 2781   2.024   1.403   0.920  0.4799  0.2473  0.0601
  696SOL    HW1 2782   2.104   1.460   0.923  1.9538 -1.0682 -1.5776
  696SOL    HW2 2783   2.013   1.386   1.014 -3.2402 -0.4608 -0.5731
  696SOL     MW 2784   2.033   1.409   0.933  0.1835 -0.0197 -0.2395
  697SOL     OW 2785   2.875   0.927   2.291 -0.3717  0.4444  0.0986
  697SOL    HW1 2786   2.863   1.007   2.240  1.3346 -1.1832  2.2722
  697SOL    HW2 2787   2.896   0.859   2.231  1.5312 -0.2033  0.4221
  697SOL     MW 2788   2.876   0.928   2.277  0.1045  0.1442  0.4280
  698SOL     OW 2789   2.544   0.388   3.094 -0.4059 -0.4171  0.4682
  698SOL    HW1 2790   2.461   0.416   3.138  1.3042  2.1219 -1.9989
  698SOL    HW2 2791   2.572   0.316   3.150  1.4308 -0.1029  1.2311
  698SOL     MW 2792   2.537   0.383   3.107  0.0620 -0.0407  0.2434
  699SOL     OW 2793   1.833   1.600   2.050 -0.3850 -0.2748 -0.1650
  699SOL    HW1 2794   1.811   1.506   2.049 -0.7928  1.8990  0.0124
  699SOL    HW2 2795   1.928   1.608   2.063 -1.0410 -1.6360  2.6916
  699SOL     MW 2796   1.843   1.589   2.052 -0.5253 -0.1676  0.2353
  700SOL     OW 2797   2.725   0.887   1.501  0.3110  0.5570  0.0048
  700SOL    HW1 2798   2.761   0.966   1.460 -1.1266 -1.0807  1.4895
  700SOL    HW2 2799   2.783   0.812   1.483 -1.8673  0.3450 -0.0168
  700SOL     MW 2800   2.738   0.888   1.493 -0.1661  0.3130  0.1979
  701SOL     OW 2801   1.686   1.280   2.626  0.2443  0.1033  0.0886
  701SOL    HW1 2802   1.782   1.296   2.626 -1.0521  1.2408 -0.4414
  701SOL    HW2 2803   1.643   1.340   2.694 -0.7827 -0.6805  0.0670
  701SOL     MW 2804   1.693   1.290   2.635 -0.0623  0.1500  0.0158
  702SOL     OW 2805   2.219   0.460   0.809  0.3003 -0.6821 -0.1028
  702SOL    HW1 2806   2.200   0.383   0.754  2.7089  0.9137  2.7078
  702SOL    HW2 2807   2.228   0.536   0.750  3.3909  0.5863  2.2786
  702SOL     MW 2808   2.218   0.460   0.794  1.0259 -0.3042  0.5822
  703SOL     OW 2809   2.661   1.276   1.000  0.1725  0.1961  0.4058
  703SOL    HW1 2810   2.674   1.268   0.902  1.0369  1.1275 -0.0475
  703SOL    HW2 2811   2.666   1.186   1.036 -1.5754 -3.3947 -2.5742
  703SOL     MW 2812   2.664   1.263   0.992  0.0560 -0.1548 -0.0472
  704SOL     OW 2813   0.040   1.266   0.267 -0.6723 -0.2780 -0.2831
  704SOL    HW1 2814  -0.047   1.260   0.233  2.0974  0.5072 -3.8471
  704SOL    HW2 2815   0.055   1.185   0.309  0.7732 -0.1081  2.1326
  704SOL     MW 2816   0.030   1.254   0.268 -0.1161 -0.1520 -0.4346
  705SOL     OW 2817   2.167   1.603   1.306 -0.1918  0.1670  0.2951
  705SOL    HW1 2818   2.082   1.610   1.351 -1.7486  2.5308  0.3227
  705SOL    HW2 2819   2.220   1.532   1.349  0.0707  2.1000 -1.3943
  705SOL     MW 2820   2.163   1.595   1.318 -0.3626  0.7339  0.0758
  706SOL     OW 2821   3.003   1.251   0.571 -0.0352  0.5344 -0.0959
  706SOL    HW1 2822   3.094   1.232   0.541  0.1871 -2.1213  1.8772
  706SOL    HW2 2823   2.976   1.338   0.603  0.1724 -1.9124  0.6461
  706SOL     MW 2824   3.011   1.260   0.571  0.0215 -0.1388  0.2624
  707SOL     OW 2825   2.412   0.109   1.026 -0.9628 -0.0874  0.3138
  707SOL    HW1 2826   2.429   0.176   0.960  1.7348 -4.1922 -1.0425
  707SOL    HW2 2827   2.318   0.106   1.020 -0.6074 -0.8112 -0.7852
  707SOL     MW 2828   2.402   0.117   1.017 -0.5600 -0.7245 -0.0102
  708SOL     OW 2829   2.543   1.526   0.067 -0.1422 -0.6765 -0.0609
  708SOL    HW1 2830   2.601   1.468   0.121  0.9614 -0.4932 -1.2222
  708SOL    HW2 2831   2.507   1.477  -0.005  0.7275  0.8922  1.5985
  708SOL     MW 2832   2.546   1.512   0.065  0.1181 -0.4453  0.0048
  709SOL     OW 2833   1.730   1.751   0.116 -0.3091  0.1655 -0.0807
  709SOL    HW1 2834   1.738   1.708   0.034 -3.3761 -0.2609 -2.5562
  709SOL    HW2 2835   1.655   1.707   0.163 -0.4008  1.1608 -2.6771
  709SOL     MW 2836   1.721   1.739   0.111 -0.7259  0.2406 -0.7499
  710SOL     OW 2837   2.233   1.171   1.183 -0.2390 -0.2665  0.2839
  710SOL    HW1 2838   2.240   1.137   1.091  1.6846 -0.1784  3.1840
  710SOL    HW2 2839   2.226   1.084   1.237 -1.5533 -1.7402 -1.5503
  710SOL     MW 2840   2.233   1.155   1.178 -0.1586 -0.4493  0.4245
  711SOL     OW 2841   2.334   0.206   1.734 -0.1145 -0.0016  0.2165
  711SOL    HW1 2842   2.433   0.187   1.723 -2.3539 -1.2255 -4.7988
  711SOL    HW2 2843   2.279   0.133   1.699  0.8483 -1.7315  1.0926
  711SOL     MW 2844   2.340   0.194   1.728 -0.2829 -0.3913 -0.3296
  712SOL     OW 2845   1.625   0.599   3.071  0.3820 -0.0097 -0.7816
  712SOL    HW1 2846   1.677   0.640   3.000 -1.1338  2.0861  1.0898
  712SOL    HW2 2847   1.533   0.636   3.066  0.2177  0.2408  0.5724
  712SOL     MW 2848   1.620   0.610   3.061  0.1603  0.2999 -0.3560
  713SOL     OW 2849   2.585   0.786   1.152 -0.0173  0.5036 -0.0164
  713SOL    HW1 2850   2.651   0.713   1.164 -0.9944  0.0592  1.3475
  713SOL    HW2 2851   2.538   0.781   1.235  2.0221 -0.1926  1.4935
  713SOL     MW 2852   2.588   0.776   1.164  0.1228  0.3531  0.3628
  714SOL     OW 2853   2.270   0.171   1.997 -0.0374  0.5162 -0.1265
  714SOL    HW1 2854   2.334   0.115   2.037 -1.5365 -2.1169 -2.4335
  714SOL    HW2 2855   2.292   0.186   1.902  2.0118 -1.0283  1.8196
  714SOL     MW 2856   2.281   0.166   1.989  0.0352 -0.0350 -0.1741
  715SOL     OW 2857   1.753   1.922   1.710 -0.7885 -0.2927 -0.0050
  715SOL    HW1 2858   1.829   1.890   1.665  0.4117 -0.4547  0.9438
  715SOL    HW2 2859   1.715   1.841   1.753 -1.8990 -1.1087  0.4673
  715SOL     MW 2860   1.758   1.907   1.710 -0.7767 -0.4218  0.1825
  716SOL     OW 2861   2.295   0.718   0.635  0.4538 -0.4534  0.4696
  716SOL    HW1 2862   2.365   0.727   0.566  2.9286  0.5828  1.4357
  716SOL    HW2 2863   2.215   0.720   0.577  1.1732  0.3212  0.2494
  716SOL     MW 2864   2.294   0.719   0.619  0.8753 -0.2145  0.5680
  717SOL     OW 2865   2.832   1.440   2.923 -0.4023 -0.1836 -0.2886
  717SOL    HW1 2866   2.925   1.460   2.954 -0.6911  0.4715  2.4375
  717SOL    HW2 2867   2.783   1.481   2.993 -2.3759  2.2051 -1.9703
  717SOL     MW 2868   2.838   1.448   2.936 -0.7008  0.2180 -0.1508
  718SOL     OW 2869   2.605   1.415   1.346 -0.3283 -1.3946  0.8870
  718SOL    HW1 2870   2.617   1.476   1.419  0.7119 -0.7903  3.2523
  718SOL    HW2 2871   2.656   1.333   1.364  2.5471  0.4273 -0.9519
  718SOL     MW 2872   2.613   1.412   1.358  0.1884 -1.0745  0.9565
  719SOL     OW 2873   2.176   1.328   0.663  0.6515  1.2892 -0.4176
  719SOL    HW1 2874   2.272   1.350   0.650  2.6273 -3.8588  1.7428
  719SOL    HW2 2875   2.161   1.313   0.756  1.2657  1.2479 -1.2800
  719SOL     MW 2876   2.187   1.329   0.673  0.9932  0.6046 -0.2463
  720SOL     OW 2877   2.891   1.201   0.161 -0.0427  0.5167 -0.1768
  720SOL    HW1 2878   2.867   1.111   0.186 -1.0134  0.4712  1.7675
  720SOL    HW2 2879   2.821   1.253   0.215 -0.1666 -1.5252 -0.3467
  720SOL     MW 2880   2.878   1.196   0.172 -0.1871  0.2413  0.0573
  721SOL     OW 2881   2.484   0.795   1.400 -0.9386  0.0655 -0.3750
  721SOL    HW1 2882   2.456   0.729   1.459 -0.0041  3.5944  1.0543
  721SOL    HW2 2883   2.549   0.833   1.459 -1.4960 -1.7114 -0.3569
  721SOL     MW 2884   2.489   0.792   1.416 -0.8888  0.2967 -0.1840
  722SOL     OW 2885   2.544   1.180   0.354  0.2238  0.0531  0.0301
  722SOL    HW1 2886   2.490   1.189   0.431  0.2504  0.3026 -0.2530
  722SOL    HW2 2887   2.633   1.140   0.371  0.0870  0.3104  1.3799
  722SOL     MW 2888   2.548   1.176   0.366  0.2093  0.1200  0.1709
  723SOL     OW 2889   2.274   1.426   1.678  0.0795  0.4763 -0.3183
  723SOL    HW1 2890   2.262   1.383   1.590 -1.1125  0.8809 -1.8979
  723SOL    HW2 2891   2.193   1.478   1.689  0.5795 -0.8122 -1.5255
  723SOL     MW 2892   2.262   1.427   1.668 -0.0118  0.3597 -0.6860
  724SOL     OW 2893   2.507   0.378   0.571 -0.3596  0.4040 -0.1978
  724SOL    HW1 2894   2.494   0.351   0.666 -3.2302 -0.4368 -1.3479
  724SOL    HW2 2895   2.574   0.314   0.542 -1.1103 -0.9546 -0.7990
  724SOL     MW 2896   2.514   0.366   0.580 -0.8374  0.1138 -0.4289
  725SOL     OW 2897   2.685   0.529   1.161 -0.1891 -0.1602  0.3178
  725SOL    HW1 2898   2.685   0.515   1.253 -2.1064 -0.6451 -0.4105
  725SOL    HW2 2899   2.582   0.524   1.150 -3.2055  1.7257  1.1312
  725SOL     MW 2900   2.671   0.526   1.172 -0.8400  0.0246  0.3291
  726SOL     OW 2901   2.566   2.389   0.521  0.3741  0.2675 -0.2162
  726SOL    HW1 2902   2.494   2.440   0.471 -0.2606  1.3972  0.3614
  726SOL    HW2 2903   2.528   2.348   0.601 -2.8946  0.3499 -2.6507
  726SOL     MW 2904   2.551   2.390   0.525 -0.1409  0.4274 -0.4612
  727SOL     OW 2905   2.839   0.308   1.651 -0.6613 -0.2211 -0.1715
  727SOL    HW1 2906   2.847   0.301   1.552 -1.4021  1.0676 -0.6158
  727SOL    HW2 2907   2.745   0.320   1.659  0.5684 -0.1576 -1.2984
  727SOL     MW 2908   2.827   0.308   1.639 -0.5968 -0.0427 -0.3788
  728SOL     OW 2909   2.841   1.144   2.998 -0.5934 -0.3867  0.5456
  728SOL    HW1 2910   2.846   1.241   2.974  3.0236  0.1346 -0.9479
  728SOL    HW2 2911   2.852   1.148   3.096 -1.6440  0.8711 -1.5547
  728SOL     MW 2912   2.843   1.157   3.007 -0.2548 -0.1520  0.0714
  729SOL     OW 2913   2.487   1.476   1.112  0.6187  0.0616  0.9196
  729SOL    HW1 2914   2.512   1.449   1.200 -1.5623  1.5938 -2.0835
  729SOL    HW2 2915   2.523   1.409   1.060 -1.8018  0.7124 -2.1582
  729SOL     MW 2916   2.495   1.463   1.117  0.0116  0.3496  0.1173
  730SOL     OW 2917   2.094   1.178   0.229 -0.0505 -0.6918  0.0828
  730SOL    HW1 2918   2.187   1.194   0.215  2.5938  0.7283  3.3689
  730SOL    HW2 2919   2.063   1.274   0.230 -0.9321  0.2306  0.1855
  730SOL     MW 2920   2.102   1.193   0.227  0.1821 -0.3827  0.5299
  731SOL     OW 2921   2.780   1.795   2.876  0.7671  0.7480  0.0314
  731SOL    HW1 2922   2.712   1.839   2.827  0.2043 -0.3630  2.2797
  731SOL    HW2 2923   2.831   1.874   2.885 -0.2132  0.1679 -2.6789
  731SOL     MW 2924   2.778   1.811   2.871  0.5635  0.5249 -0.0296
  732SOL     OW 2925   2.252   0.943   1.330  0.6933  0.0395 -0.4024
  732SOL    HW1 2926   2.208   0.948   1.418 -0.9737 -0.6906  2.3924
  732SOL    HW2 2927   2.339   0.911   1.348  4.3098  2.3309  3.3555
  732SOL     MW 2928   2.258   0.939   1.344  0.9505  0.2455  0.4621
  733SOL     OW 2929   2.375   2.885   3.023  0.1931  0.4745  0.4021
  733SOL    HW1 2930   2.295   2.940   3.014 -1.5759  0.0598  1.6423
  733SOL    HW2 2931   2.343   2.793   3.043  0.3674 -1.8035 -1.4432
  733SOL     MW 2932   2.360   2.880   3.025 -0.0173  0.1192  0.3223
  734SOL     OW 2933   1.489   0.346   2.475 -0.3917  0.3652 -0.2335
  734SOL    HW1 2934   1.449   0.318   2.555  1.9246  2.0765  0.4933
  734SOL    HW2 2935   1.514   0.271   2.409  1.4747 -4.8477  0.1284
  734SOL     MW 2936   1.487   0.333   2.477  0.1601 -0.0968 -0.0898
  735SOL     OW 2937   3.027   0.875   2.682  0.7172 -0.5376 -0.6197
  735SOL    HW1 2938   2.962   0.807   2.669 -1.8053 -0.7695 -0.2779
  735SOL    HW2 2939   3.018   0.908   2.771 -1.0799 -0.5035 -1.3099
  735SOL     MW 2940   3.017   0.870   2.692  0.1472 -0.5637 -0.6656
  736SOL     OW 2941   0.054   0.606   2.471 -0.2437  0.1099  0.0918
  736SOL    HW1 2942   0.093   0.638   2.387 -0.1888 -1.3289 -1.2910
  736SOL    HW2 2943   0.022   0.512   2.461 -2.7734 -1.8642  0.6526
  736SOL     MW 2944   0.055   0.598   2.458 -0.5702 -0.3404 -0.0166
  737SOL     OW 2945   2.873   0.679   2.537  0.2497  1.1361  0.0265
  737SOL    HW1 2946   2.825   0.628   2.472  1.6277  0.2718  0.3347
  737SOL    HW2 2947   2.962   0.656   2.511 -1.1677  0.0014  1.2685
  737SOL     MW 2948   2.878   0.669   2.525  0.2445  0.8724  0.2310
  738SOL     OW 2949   0.173   0.419   1.927  0.3088 -0.4590 -0.0045
  738SOL    HW1 2950   0.254   0.461   1.913  0.7658 -0.0725 -2.3154
  738SOL    HW2 2951   0.189   0.352   1.859  5.1532 -0.2499  2.2684
  738SOL     MW 2952   0.186   0.416   1.916  1.0083 -0.3804 -0.0095
  739SOL     OW 2953   2.570   0.983   2.142  0.0438 -0.3560 -1.0215
  739SOL    HW1 2954   2.476   0.975   2.121  0.5517 -0.4674  3.1594
  739SOL    HW2 2955   2.620   1.018   2.066  0.3791  0.1854 -1.5126
  739SOL     MW 2956   2.564   0.987   2.129  0.1550 -0.2993 -0.5347
  740SOL     OW 2957   0.240   1.678   2.959 -0.0526  0.0054 -0.2976
  740SOL    HW1 2958   0.199   1.594   2.965 -0.9249  1.9748 -0.9181
  740SOL    HW2 2959   0.325   1.663   2.999 -0.4454 -2.2733  0.1768
  740SOL     MW 2960   0.246   1.665   2.965 -0.2195 -0.0354 -0.3169
  741SOL     OW 2961   2.200   1.235   2.744 -0.2690 -0.3293  0.7267
  741SOL    HW1 2962   2.241   1.319   2.716 -0.3929 -0.6081 -2.4512
  741SOL    HW2 2963   2.204   1.246   2.841 -0.0798 -0.9829 -0.9707
  741SOL     MW 2964   2.206   1.247   2.753 -0.2604 -0.4523  0.0835
  742SOL     OW 2965   1.642   1.361   2.355  0.6836  0.2473 -0.1808
  742SOL    HW1 2966   1.579   1.302   2.310  2.6505 -3.3278  0.8577
  742SOL    HW2 2967   1.670   1.316   2.434  0.9661 -0.3919  2.8619
  742SOL     MW 2968   1.638   1.347   2.360  0.9804 -0.3088  0.3577
  743SOL     OW 2969   2.525   1.224   2.702  0.3330 -0.1644  0.0302
  743SOL    HW1 2970   2.427   1.237   2.689  0.1934  0.9211  1.4494
  743SOL    HW2 2971   2.530   1.154   2.763 -0.1789  0.4935 -0.4878
  743SOL     MW 2972   2.513   1.216   2.708  0.2470  0.0656  0.1491
  744SOL     OW 2973   2.782   0.922   1.788 -0.1088 -0.1793  0.1218
  744SOL    HW1 2974   2.694   0.955   1.810  0.9515 -1.1458  3.6353
  744SOL    HW2 2975   2.774   0.896   1.697 -1.3868  0.9946  0.4493
  744SOL     MW 2976   2.769   0.923   1.779 -0.1375 -0.1519  0.6286
  745SOL     OW 2977   1.729   0.491   2.478  0.1127 -0.2665  0.5389
  745SOL    HW1 2978   1.726   0.524   2.383 -2.8682  0.3619 -0.4040
  745SOL    HW2 2979   1.649   0.434   2.490 -2.5970  0.6163 -2.6492
  745SOL     MW 2980   1.718   0.488   2.467 -0.6381 -0.0671 -0.0062
  746SOL     OW 2981   1.577   1.491   1.706  0.4527  0.4137 -0.5508
  746SOL    HW1 2982   1.616   1.572   1.745 -2.5954  0.8260  1.1928
  746SOL    HW2 2983   1.575   1.439   1.793  1.5033 -0.0252  1.1375
  746SOL     MW 2984   1.582   1.495   1.723  0.1891  0.4102 -0.0980
  747SOL     OW 2985   2.598   1.127   1.887  0.5946 -0.0829  0.1030
  747SOL    HW1 2986   2.513   1.126   1.842 -1.5742  2.1040 -1.9178
  747SOL    HW2 2987   2.583   1.217   1.922 -1.9425  1.3368 -1.4447
  747SOL     MW 2988   2.584   1.139   1.886 -0.0263  0.3929 -0.3678
  748SOL     OW 2989   0.106   0.005   1.947 -0.2308 -0.6700 -0.2315
  748SOL    HW1 2990   0.204   0.017   1.934 -0.4895  2.5205  1.0560
  748SOL    HW2 2991   0.071   0.072   2.006 -1.8925  0.0001 -0.5048
  748SOL     MW 2992   0.115   0.015   1.953 -0.4842 -0.1607 -0.0977
  749SOL     OW 2993   2.416   0.656   2.763 -0.0625  0.0881  0.3176
  749SOL    HW1 2994   2.416   0.735   2.704  1.8829  0.1031 -0.3965
  749SOL    HW2 2995   2.469   0.687   2.842 -0.4351 -1.1294 -2.0998
  749SOL     MW 2996   2.423   0.670   2.765  0.1450 -0.0706 -0.0956
  750SOL     OW 2997   2.142   3.042   1.989  0.2515  0.3402  0.3257
  750SOL    HW1 2998   2.193   3.128   1.981  0.1487 -1.8288  0.1563
  750SOL    HW2 2999   2.192   2.974   1.955 -0.3664 -0.6423  0.2448
  750SOL     MW 3000   2.156   3.044   1.983  0.1564 -0.0756  0.2927
  751SOL     OW 3001   3.069   0.335   2.458  0.0694 -0.0915 -0.1288
  751SOL    HW1 3002   2.997   0.318   2.390 -0.9590 -0.5559 -3.9193
  751SOL    HW2 3003   3.147   0.337   2.403 -0.4058 -0.8629  2.7776
  751SOL     MW 3004   3.070   0.333   2.442 -0.1290 -0.2545 -0.2454
  752SOL     OW 3005   2.140   0.920   2.772  0.3024  0.1551 -0.2861
  752SOL    HW1 3006   2.194   0.968   2.831  0.8213 -1.3003  0.4061
  752SOL    HW2 3007   2.080   0.875   2.830 -1.1427  1.5898  0.0089
  752SOL     MW 3008   2.139   0.921   2.787  0.1802  0.1524 -0.1558
  753SOL     OW 3009   2.882   0.311   2.271 -0.1244  0.4056 -0.0052
  753SOL    HW1 3010   2.827   0.229   2.258 -1.1740 -1.6183 -0.8565
  753SOL    HW2 3011   2.821   0.376   2.313 -0.8267  0.4655 -0.5923
  753SOL     MW 3012   2.867   0.308   2.275 -0.3555  0.1465 -0.1950
  754SOL     OW 3013   2.257   2.998   2.599  0.5757 -0.2110 -0.0918
  754SOL    HW1 3014   2.274   2.965   2.507  0.5032 -1.8908 -0.4485
  754SOL    HW2 3015   2.335   2.981   2.657  0.5763  0.6834  0.3012
  754SOL     MW 3016   2.270   2.991   2.594  0.5662 -0.3146 -0.0870
  755SOL     OW 3017   2.772   1.625   2.418 -0.6646  0.2941  0.4149
  755SOL    HW1 3018   2.731   1.537   2.426 -0.5088  1.8845 -1.3085
  755SOL    HW2 3019   2.821   1.631   2.502 -0.6824  0.1693  3.3409
  755SOL     MW 3020   2.773   1.614   2.430 -0.6464  0.4874  0.5735
  756SOL     OW 3021   2.170   1.241   3.016 -0.0145  0.2205  0.0370
  756SOL    HW1 3022   2.248   1.295   3.030 -2.0226 -1.3550  3.2246
  756SOL    HW2 3023   2.217   1.160   3.015 -0.5254 -0.3488  1.2693
  756SOL     MW 3024   2.186   1.237   3.017 -0.3469 -0.0625  0.6202
  757SOL     OW 3025   2.169   0.944   1.751  0.0657  0.2904 -0.0468
  757SOL    HW1 3026   2.166   0.844   1.758 -2.7637  0.4391  0.6026
  757SOL    HW2 3027   2.100   0.957   1.682 -0.8278 -0.9853  1.1326
  757SOL     MW 3028   2.160   0.933   1.743 -0.4255  0.1417  0.1945
  758SOL     OW 3029   2.260   1.855   2.624  0.1360 -0.0416  0.2213
  758SOL    HW1 3030   2.241   1.870   2.535  1.0672  0.0881  1.6566
  758SOL    HW2 3031   2.344   1.803   2.637  0.7606 -2.0126 -1.8773
  758SOL     MW 3032   2.268   1.850   2.614  0.3413 -0.2846  0.1338
  759SOL     OW 3033   1.553   1.443   2.800 -0.5458 -0.4885 -0.1437
  759SOL    HW1 3034   1.565   1.528   2.747  1.0584 -0.5200  0.1714
  759SOL    HW2 3035   1.606   1.457   2.872 -2.4327 -1.8322 -1.2731
  759SOL     MW 3036   1.562   1.456   2.802 -0.5831 -0.6699 -0.2512
  760SOL     OW 3037   2.594   1.914   2.722  0.3151  0.4958 -0.2065
  760SOL    HW1 3038   2.551   1.827   2.717  0.5206  0.6428 -0.0362
  760SOL    HW2 3039   2.665   1.906   2.659  2.1733  0.4982 -0.5534
  760SOL     MW 3040   2.598   1.902   2.713  0.5874  0.5155 -0.2298
  761SOL     OW 3041   2.228   0.478   2.444 -0.5411  0.3428  0.2726
  761SOL    HW1 3042   2.147   0.427   2.437 -3.6438  2.0726  3.4994
  761SOL    HW2 3043   2.234   0.514   2.531 -2.5259  1.7939 -1.2925
  761SOL     MW 3044   2.219   0.476   2.454 -1.2123  0.7625  0.4919
  762SOL     OW 3045   0.025   0.183   2.126 -0.0764  0.1314  0.4444
  762SOL    HW1 3046  -0.010   0.128   2.195  0.7331 -0.6258 -0.4865
  762SOL    HW2 3047  -0.054   0.206   2.079  0.3975  0.9779 -0.4978
  762SOL     MW 3048   0.010   0.179   2.129  0.0929  0.1431  0.1973
  763SOL     OW 3049   2.470   1.198   2.356  0.4383 -0.1719 -0.1231
  763SOL    HW1 3050   2.510   1.141   2.293 -2.9528  4.0378  0.0733
  763SOL    HW2 3051   2.548   1.244   2.388  1.8230 -0.4953 -1.2380
  763SOL     MW 3052   2.485   1.196   2.352  0.1736  0.3409 -0.2443
  764SOL     OW 3053   0.394   0.094   2.837  0.2488  0.2173 -0.3103
  764SOL    HW1 3054   0.321   0.121   2.772  0.0523 -0.3002  0.0001
  764SOL    HW2 3055   0.404   0.172   2.887 -0.3852 -1.2418  0.0330
  764SOL     MW 3056   0.385   0.108   2.835  0.1392 -0.0435 -0.2240
  765SOL     OW 3057   2.719   0.074   2.292 -0.4285  0.8954 -0.1347
  765SOL    HW1 3058   2.683   0.033   2.208 -2.1911  2.2389 -0.6664
  765SOL    HW2 3059   2.765   0.003   2.336 -0.8663 -1.1214  1.1644
  765SOL     MW 3060   2.720   0.059   2.287 -0.7188  0.8065 -0.0335
  766SOL     OW 3061   1.938   3.034   2.161  0.2038  0.5142  0.2153
  766SOL    HW1 3062   2.010   3.040   2.093  0.6891  1.3373 -2.4360
  766SOL    HW2 3063   1.886   2.965   2.124 -0.7016  3.3381  2.1725
  766SOL     MW 3064   1.941   3.025   2.147  0.1484  0.9954  0.1237
  767SOL     OW 3065   2.679   0.642   1.888 -0.0583 -0.0735  0.5304
  767SOL    HW1 3066   2.740   0.673   1.952  0.2693 -1.8113  1.5576
  767SOL    HW2 3067   2.615   0.716   1.876  1.3483  1.9262  1.6210
  767SOL     MW 3068   2.678   0.656   1.895  0.1705 -0.0389  0.8098
  768SOL     OW 3069   0.002   1.494   2.959 -0.4445  0.0166  0.1778
  768SOL    HW1 3070   0.022   1.506   3.057 -1.9475 -0.4047  1.0408
  768SOL    HW2 3071   0.018   1.402   2.947  1.4722  0.2353 -0.2942
  768SOL     MW 3072   0.007   1.483   2.971 -0.3899 -0.0101  0.2294
  769SOL     OW 3073   2.355   0.714   2.315 -0.4223 -0.1174  0.6690
  769SOL    HW1 3074   2.311   0.633   2.308 -2.0600  1.4899 -1.8618
  769SOL    HW2 3075   2.442   0.709   2.279  0.3637  0.3650  0.1943
  769SOL     MW 3076   2.361   0.702   2.309 -0.5347  0.1583  0.2725
  770SOL     OW 3077   0.023   1.557   2.635  0.9525  0.2937 -0.2706
  770SOL    HW1 3078  -0.062   1.576   2.679  0.8595  0.1243  0.0998
  770SOL    HW2 3079   0.051   1.464   2.648  1.0648 -1.5939 -0.0600
  770SOL     MW 3080   0.015   1.547   2.643  0.9551  0.0223 -0.1940
  771SOL     OW 3081   3.066   0.600   1.961  0.2442  0.1551  0.0279
  771SOL    HW1 3082   3.028   0.619   1.879  0.5130  1.9267  0.8799
  771SOL    HW2 3083   3.130   0.538   1.937  0.1968 -1.1209  2.9290
  771SOL     MW 3084   3.069   0.595   1.947  0.2734  0.2205  0.5231
  772SOL     OW 3085   0.004   3.091   2.345 -0.5129  0.1634  0.1845
  772SOL    HW1 3086  -0.080   3.061   2.389  2.0004 -3.7862 -1.4815
  772SOL    HW2 3087   0.040   3.018   2.291  0.0455  2.0993  0.3086
  772SOL     MW 3088  -0.003   3.077   2.344 -0.1076 -0.1023 -0.0189
  773SOL     OW 3089   2.477   2.925   2.751  0.0835 -0.0097  0.2301
  773SOL    HW1 3090   2.515   2.845   2.711 -1.6313 -0.8866  1.0911
  773SOL    HW2 3091   2.451   2.893   2.840 -0.5565 -0.6170  2.8941
  773SOL     MW 3092   2.479   2.910   2.758 -0.2272 -0.2056  0.6952
  774SOL     OW 3093   2.358   1.152   1.722 -0.3157 -0.5238  0.1900
  774SOL    HW1 3094   2.316   1.241   1.729 -1.1155 -1.1117  0.2545
  774SOL    HW2 3095   2.278   1.089   1.724 -1.4542  0.4457 -1.0736
  774SOL     MW 3096   2.342   1.155   1.723 -0.5714 -0.4735  0.0318
  775SOL     OW 3097   2.296   2.882   2.356 -0.4226  0.0934 -0.2001
  775SOL    HW1 3098   2.331   2.957   2.306 -1.2947 -1.0976  0.5707
  775SOL    HW2 3099   2.370   2.820   2.347 -0.8645 -1.0970  0.9589
  775SOL     MW 3100   2.311   2.883   2.348 -0.5960 -0.2208  0.0545
  776SOL     OW 3101   0.129   1.482   0.134 -0.0598  0.3854 -0.0419
  776SOL    HW1 3102   0.221   1.487   0.105  0.4095  1.6239 -0.3568
  776SOL    HW2 3103   0.125   1.405   0.189  1.3720  0.0291 -0.1689
  776SOL     MW 3104   0.140   1.473   0.137  0.1910  0.5018 -0.1002
  777SOL     OW 3105   2.941   1.143   1.754  0.0646  0.6414  0.1646
  777SOL    HW1 3106   2.883   1.173   1.680  2.7860 -1.0609  1.5429
  777SOL    HW2 3107   2.884   1.079   1.796  0.3772 -3.6804  0.1188
  777SOL     MW 3108   2.926   1.138   1.750  0.4649 -0.1534  0.3404
  778SOL     OW 3109   2.917   0.499   2.753 -0.3897 -0.3344 -0.5094
  778SOL    HW1 3110   2.837   0.491   2.804 -0.5026  0.4851  1.6206
  778SOL    HW2 3111   2.899   0.568   2.688 -1.2167 -0.9740 -2.4665
  778SOL     MW 3112   2.904   0.507   2.751 -0.5137 -0.3107 -0.4866
  779SOL     OW 3113   2.248   0.417   2.117 -0.1715 -0.5832 -0.3228
  779SOL    HW1 3114   2.210   0.443   2.199  3.0806 -2.5128 -1.9457
  779SOL    HW2 3115   2.236   0.326   2.094  1.3043 -1.2003  0.9956
  779SOL     MW 3116   2.242   0.408   2.125  0.4523 -0.9192 -0.3630
  780SOL     OW 3117   0.169   0.242   2.708 -0.2067 -0.3310 -0.2029
  780SOL    HW1 3118   0.078   0.250   2.689 -3.0998 -1.4679  1.1331
  780SOL    HW2 3119   0.216   0.319   2.686 -3.3693  2.1784 -0.1016
  780SOL     MW 3120   0.163   0.253   2.703 -1.0057 -0.1499 -0.0133
  781SOL     OW 3121   3.076   1.292   2.457 -0.4500  0.5941  0.5198
  781SOL    HW1 3122   3.082   1.315   2.366 -1.2797 -0.7648  0.9515
  781SOL    HW2 3123   3.093   1.196   2.452 -0.1774 -0.2208 -1.2443
  781SOL     MW 3124   3.079   1.283   2.444 -0.5235  0.3073  0.3440
  782SOL     OW 3125   0.695   1.495   0.075  0.2267  0.2931  0.4336
  782SOL    HW1 3126   0.613   1.541   0.064 -0.0673  3.2104  0.5089
  782SOL    HW2 3127   0.704   1.508   0.170  0.2334 -2.1929  0.6617
  782SOL     MW 3128   0.686   1.502   0.086  0.1888  0.3500  0.4736
  783SOL     OW 3129   2.707   0.491   2.388 -0.4951  0.4061  0.4105
  783SOL    HW1 3130   2.662   0.563   2.347  0.9166 -0.0475 -0.1623
  783SOL    HW2 3131   2.648   0.466   2.462  1.1793 -2.3866 -0.6869
  783SOL     MW 3132   2.694   0.497   2.392 -0.0879 -0.0222  0.1902
  784SOL     OW 3133   0.212   0.819   2.863  0.1291 -0.3584  0.1495
  784SOL    HW1 3134   0.122   0.833   2.853  1.6103  1.1651  0.5238
  784SOL    HW2 3135   0.249   0.879   2.802 -2.9771  0.0925 -0.0711
  784SOL     MW 3136   0.205   0.829   2.854 -0.0853 -0.0979  0.1697
  785SOL     OW 3137   0.399   0.395   2.180  0.7159 -0.3238  0.0248
  785SOL    HW1 3138   0.375   0.406   2.086 -3.1424  0.1631 -0.9875
  785SOL    HW2 3139   0.313   0.380   2.222  1.2621  1.5957  2.0769
  785SOL     MW 3140   0.384   0.395   2.173  0.2789 -0.0063  0.1620
  786SOL     OW 3141   1.869   0.450   0.023  0.4026 -0.8958 -0.4702
  786SOL    HW1 3142   1.804   0.503   0.076  0.8165 -1.1174  0.4814
  786SOL    HW2 3143   1.858   0.484  -0.068 -0.5926 -1.1561  1.5094
  786SOL     MW 3144   1.859   0.461   0.018  0.3259 -0.9594 -0.0835
  787SOL     OW 3145   2.442   0.183   2.911  0.5405 -0.4129  0.3507
  787SOL    HW1 3146   2.519   0.131   2.891  2.4410 -1.5602 -0.8620
  787SOL    HW2 3147   2.467   0.261   2.965  1.0402  0.2178  3.1580
  787SOL     MW 3148   2.456   0.187   2.915  0.8572 -0.4810  0.5611
  788SOL     OW 3149   2.872   3.001   2.433 -0.1425  0.4435 -0.0683
  788SOL    HW1 3150   2.936   2.977   2.500 -0.4031  0.4824 -0.5710
  788SOL    HW2 3151   2.876   2.943   2.355  0.8700 -0.1144 -0.9151
  788SOL     MW 3152   2.881   2.990   2.432 -0.0433  0.3751 -0.2463
  789SOL     OW 3153   0.115   0.164   0.017 -0.3593 -0.1561 -0.4894
  789SOL    HW1 3154   0.021   0.169   0.034  2.3998 -1.5895  0.3967
  789SOL    HW2 3155   0.135   0.232  -0.049  2.9665  0.4905 -0.2247
  789SOL     MW 3156   0.106   0.173   0.010  0.4436 -0.2599 -0.3376
  790SOL     OW 3157   3.064   1.015   2.462  0.7988  0.8517 -0.5752
  790SOL    HW1 3158   3.051   0.959   2.539  0.2396  1.6241 -3.0003
  790SOL    HW2 3159   2.998   0.970   2.397 -0.4355 -2.2016  1.2234
  790SOL     MW 3160   3.053   1.002   2.464  0.5621  0.5508 -0.6578
  791SOL     OW 3161   2.545   0.449   2.598 -0.1529  0.6983 -0.2454
  791SOL    HW1 3162   2.532   0.511   2.678  0.9133 -1.4110  0.4583
  791SOL    HW2 3163   2.591   0.365   2.624  2.7739  1.4604  1.2289
  791SOL     MW 3164   2.549   0.446   2.612  0.3739  0.5205  0.0420
  792SOL     OW 3165   2.428   0.195   2.471 -0.3925 -0.2143 -0.3316
  792SOL    HW1 3166   2.453   0.291   2.467 -0.0283  2.0058  2.0961
  792SOL    HW2 3167   2.363   0.181   2.545 -2.4403 -0.9743  0.6342
  792SOL     MW 3168   2.423   0.206   2.480 -0.6146 -0.0216  0.1162
  793SOL     OW 3169   1.776   1.102   1.998  0.0955  0.0172  0.4748
  793SOL    HW1 3170   1.745   1.104   1.901 -0.9458 -1.0361 -1.3930
  793SOL    HW2 3171   1.871   1.117   1.983 -0.2380  1.3741  1.2382
  793SOL     MW 3172   1.784   1.104   1.983 -0.0859  0.0572  0.3291
  794SOL     OW 3173   1.374   2.320   0.105  0.3629  0.3616 -0.3611
  794SOL    HW1 3174   1.401   2.401   0.071 -4.8171 -2.4509  2.2801
  794SOL    HW2 3175   1.421   2.294   0.186  0.3309 -3.2746  1.7319
  794SOL     MW 3176   1.383   2.327   0.111 -0.3247 -0.4893  0.2635
  795SOL     OW 3177   2.300   1.076   2.534  0.3454 -0.0454  0.0091
  795SOL    HW1 3178   2.248   1.131   2.595 -0.2537  0.1267 -0.5873
  795SOL    HW2 3179   2.377   1.118   2.496 -1.6330 -1.0282  1.4527
  795SOL     MW 3180   2.304   1.089   2.537  0.0053 -0.1523  0.1209
  796SOL     OW 3181   0.250   0.612   2.698  0.1773  0.3013  0.3503
  796SOL    HW1 3182   0.232   0.688   2.761 -1.2801  1.1372  1.3950
  796SOL    HW2 3183   0.182   0.614   2.628 -1.2005 -0.3072  2.2947
  796SOL     MW 3184   0.239   0.622   2.697 -0.1968  0.3313  0.7447
  797SOL     OW 3185   2.661   0.205   2.607 -0.6389 -0.3035 -0.4388
  797SOL    HW1 3186   2.578   0.182   2.555 -5.9221 -2.0654 -0.6482
  797SOL    HW2 3187   2.739   0.180   2.554  1.0579 -1.9731  2.5412
  797SOL     MW 3188   2.660   0.198   2.593 -1.1121 -0.7562 -0.0732
  798SOL     OW 3189   2.366   0.033   2.253 -0.3944  0.5179 -0.5416
  798SOL    HW1 3190   2.390   0.102   2.321 -1.1672  1.0987  0.1950
  798SOL    HW2 3191   2.443   0.012   2.198 -0.1632  3.2950  0.4445
  798SOL     MW 3192   2.380   0.039   2.255 -0.4659  0.9609 -0.3143
  799SOL     OW 3193   2.562   2.981   0.107 -0.3785 -0.5013  0.1370
  799SOL    HW1 3194   2.477   2.964   0.072 -1.6902 -1.3999  2.5339
  799SOL    HW2 3195   2.557   2.970   0.203 -1.4289  1.0414 -1.1556
  799SOL     MW 3196   2.550   2.977   0.115 -0.6901 -0.4163  0.2827
  800SOL     OW 3197   1.936   3.046   1.753 -0.2654  0.5346 -0.3430
  800SOL    HW1 3198   1.864   2.982   1.751 -0.1426 -0.5697  1.3868
  800SOL    HW2 3199   1.974   3.049   1.847  1.3405 -0.1894  1.8568
  800SOL     MW 3200   1.932   3.038   1.765 -0.0373  0.2933  0.1755
  801SOL     OW 3201   2.852   1.224   2.610 -0.0545 -0.0863  0.2245
  801SOL    HW1 3202   2.866   1.129   2.607 -0.1471  1.3711  1.3335
  801SOL    HW2 3203   2.927   1.255   2.559 -0.1439 -3.1969 -0.0062
  801SOL     MW 3204   2.863   1.216   2.603 -0.0785 -0.3044  0.3404
  802SOL     OW 3205   2.598   1.486   2.791  0.1757  0.2328 -0.2158
  802SOL    HW1 3206   2.593   1.395   2.760  1.2502 -2.1158 -2.4592
  802SOL    HW2 3207   2.692   1.481   2.832  1.8539  0.6336  2.5501
  802SOL     MW 3208   2.609   1.474   2.792  0.5389 -0.0242 -0.1469
  803SOL     OW 3209   2.296   1.387   2.004 -0.4777 -0.1805 -0.3506
  803SOL    HW1 3210   2.269   1.357   2.090 -1.2332  2.1005 -0.5904
  803SOL    HW2 3211   2.234   1.347   1.946  0.5664 -0.7465  1.3970
  803SOL     MW 3212   2.284   1.377   2.008 -0.4396  0.0458 -0.1516
  804SOL     OW 3213   2.294   0.106   0.037  0.3072 -0.1736 -0.0996
  804SOL    HW1 3214   2.220   0.175   0.031  1.0301  2.0487 -0.6282
  804SOL    HW2 3215   2.353   0.125  -0.044 -1.2346  1.1783  1.4748
  804SOL     MW 3216   2.292   0.117   0.026  0.1992  0.2980  0.0384
  805SOL     OW 3217   2.688   0.862   2.642  0.1194  0.1620 -0.0926
  805SOL    HW1 3218   2.605   0.848   2.591  0.7177 -1.0854  0.5486
  805SOL    HW2 3219   2.746   0.795   2.606  0.7451  3.2256  1.7282
  805SOL     MW 3220   2.685   0.851   2.630  0.2809  0.4017  0.2322
  806SOL     OW 3221   2.614   0.716   2.241 -1.0566 -0.2588 -0.0369
  806SOL    HW1 3222   2.641   0.715   2.151  0.5476 -1.1051  0.9277
  806SOL    HW2 3223   2.650   0.801   2.262 -0.3612 -2.3246  0.9094
  806SOL     MW 3224   2.623   0.727   2.232 -0.7532 -0.6430  0.2152
  807SOL     OW 3225   0.055   1.100   2.054  0.0452  0.7115  0.7690
  807SOL    HW1 3226   0.093   1.007   2.047  1.0261 -0.3518 -0.4906
  807SOL    HW2 3227  -0.038   1.091   2.067  3.3989 -1.7819 -1.0836
  807SOL     MW 3228   0.048   1.087   2.055  0.6171  0.2423  0.3584
  808SOL     OW 3229   2.659   0.041   2.824 -0.4816 -0.1523 -0.1524
  808SOL    HW1 3230   2.610  -0.044   2.802  3.8200 -1.9653  1.0771
  808SOL    HW2 3231   2.665   0.096   2.735  0.8212  0.3360 -0.3973
  808SOL     MW 3232   2.653   0.037   2.809  0.2578 -0.3271 -0.0225
  809SOL     OW 3233   2.696   1.347   2.433 -0.3467  0.0938 -0.6752
  809SOL    HW1 3234   2.746   1.309   2.504  0.9702 -0.5212 -3.3766
  809SOL    HW2 3235   2.744   1.309   2.359 -0.6230  1.2274  0.6655
  809SOL     MW 3236   2.709   1.337   2.433 -0.2094  0.1623 -0.8547
  810SOL     OW 3237   2.221   1.342   2.275  0.0328  0.1984  0.5226
  810SOL    HW1 3238   2.279   1.276   2.317  0.4582  0.0358 -0.1649
  810SOL    HW2 3239   2.147   1.347   2.334  1.6045  0.2474  1.4902
  810SOL     MW 3240   2.219   1.334   2.289  0.2963  0.1834  0.5596
  811SOL     OW 3241   1.598   0.170   2.311 -0.3555 -0.0514 -0.5300
  811SOL    HW1 3242   1.690   0.146   2.326  1.0984  0.2516 -0.2054
  811SOL    HW2 3243   1.578   0.164   2.218  2.2911 -0.5105  1.3304
  811SOL     MW 3244   1.607   0.166   2.300  0.1855 -0.0720 -0.2417
  812SOL     OW 3245   1.466   2.863   2.068 -0.2249  0.3999 -0.4267
  812SOL    HW1 3246   1.561   2.858   2.058 -0.9525 -1.1571 -1.8475
  812SOL    HW2 3247   1.447   2.823   2.153 -0.8908  0.0284 -1.5531
  812SOL     MW 3248   1.476   2.857   2.078 -0.4087  0.1454 -0.7628
  813SOL     OW 3249   2.012   0.620   2.236  0.2156 -0.2672  0.0697
  813SOL    HW1 3250   1.933   0.581   2.206  3.3458  0.3993  0.8524
  813SOL    HW2 3251   1.979   0.687   2.295 -0.5852 -1.6036 -4.0650
  813SOL     MW 3252   1.997   0.623   2.240  0.5229 -0.3556 -0.3726
  814SOL     OW 3253   2.687   1.222   1.639  0.0791 -0.2189  0.2914
  814SOL    HW1 3254   2.635   1.163   1.693 -1.7396 -1.4922 -1.1588
  814SOL    HW2 3255   2.704   1.179   1.551  0.4222  2.1311 -0.7572
  814SOL     MW 3256   2.682   1.208   1.634 -0.1156 -0.0769 -0.0382
  815SOL     OW 3257   2.524   1.757   2.410  0.8413  0.6084 -0.0401
  815SOL    HW1 3258   2.493   1.675   2.361  0.6777 -2.1768 -1.3792
  815SOL    HW2 3259   2.621   1.743   2.411  0.7861 -0.9181 -0.3245
  815SOL     MW 3260   2.533   1.744   2.404  0.8125  0.0395 -0.2543
  816SOL     OW 3261   0.746   0.687   2.758  0.1710  0.3500 -0.3303
  816SOL    HW1 3262   0.790   0.591   2.774  1.5064  1.3457  2.0811
  816SOL    HW2 3263   0.643   0.694   2.741  0.6270  1.7174 -0.6320
  816SOL     MW 3264   0.738   0.675   2.758  0.4074  0.6618 -0.0519
  817SOL     OW 3265   2.985   1.248   1.452 -0.3840 -0.6060  0.2074
  817SOL    HW1 3266   3.078   1.215   1.466  0.2353 -1.7223 -2.0820
  817SOL    HW2 3267   2.993   1.344   1.422 -0.4829  1.9161 -0.0500
  817SOL     MW 3268   2.998   1.257   1.450 -0.3153 -0.4205 -0.1287
  818SOL     OW 3269   1.905   1.065   2.628 -0.4644 -0.0519 -0.3116
  818SOL    HW1 3270   1.879   0.987   2.578 -2.2264  4.6965 -0.9755
  818SOL    HW2 3271   1.994   1.049   2.663  2.9942 -0.5043  0.9266
  818SOL     MW 3272   1.914   1.052   2.626 -0.2406  0.5149 -0.2358
  819SOL     OW 3273   1.965   0.333   2.477 -0.0031 -0.5246  0.5166
  819SOL    HW1 3274   1.890   0.394   2.458  1.0055 -1.7289 -1.4330
  819SOL    HW2 3275   1.993   0.336   2.567  1.6645  0.8587 -1.6664
  819SOL     MW 3276   1.958   0.342   2.486  0.3500 -0.5010 -0.0287
  820SOL     OW 3277   2.469   1.694   2.671 -0.3916 -0.0110 -0.5106
  820SOL    HW1 3278   2.519   1.623   2.716 -0.6179  1.3758  0.5408
  820SOL    HW2 3279   2.497   1.699   2.576 -2.5949 -1.1251  0.3828
  820SOL     MW 3280   2.479   1.685   2.665 -0.7121  0.0250 -0.2540
  821SOL     OW 3281   2.578   1.377   1.990 -0.1305 -0.3472 -0.0217
  821SOL    HW1 3282   2.613   1.451   1.934 -1.4844  0.6535 -0.6370
  821SOL    HW2 3283   2.486   1.396   2.007  2.9137  0.1979  0.4936
  821SOL     MW 3284   2.571   1.390   1.985  0.0925 -0.1432 -0.0349
  822SOL     OW 3285   2.917   2.740   1.479 -0.1101  0.1521 -0.1014
  822SOL    HW1 3286   2.936   2.712   1.565 -3.1720 -1.1789 -3.1393
  822SOL    HW2 3287   2.892   2.833   1.491  0.5175 -0.5444  1.0601
  822SOL     MW 3288   2.916   2.748   1.492 -0.4313 -0.1154 -0.3490
  823SOL     OW 3289   2.363   0.484   1.864  0.2720  0.2844  0.0810
  823SOL    HW1 3290   2.444   0.437   1.839 -2.6337  1.4160 -0.1579
  823SOL    HW2 3291   2.347   0.450   1.949  0.6739  1.3119 -0.8928
  823SOL     MW 3292   2.372   0.474   1.872 -0.0584  0.5693 -0.0790
  824SOL     OW 3293   2.260   1.478   2.664  0.0212 -0.4225  0.7134
  824SOL    HW1 3294   2.338   1.535   2.662  1.0792 -1.6330  1.3273
  824SOL    HW2 3295   2.182   1.538   2.659  0.5795  0.0762 -0.0430
  824SOL     MW 3296   2.260   1.494   2.663  0.2345 -0.5164  0.6946
  825SOL     OW 3297   1.864   2.595   0.239  0.2268 -0.7134  0.1262
  825SOL    HW1 3298   1.799   2.563   0.295 -1.7475  2.0011  1.0359
  825SOL    HW2 3299   1.926   2.524   0.217  2.3777  1.7263  1.2170
  825SOL     MW 3300   1.864   2.581   0.243  0.2501 -0.0333  0.3901
  826SOL     OW 3301   1.805   2.367   0.450 -0.6291 -0.2205 -0.1784
  826SOL    HW1 3302   1.754   2.300   0.502  0.1051 -0.0169 -0.1359
  826SOL    HW2 3303   1.781   2.452   0.494  2.6532  1.9639 -3.6470
  826SOL     MW 3304   1.795   2.369   0.463 -0.0992  0.0946 -0.6305
  827SOL     OW 3305   1.900   2.224   0.795 -0.3516 -0.0635  0.2756
  827SOL    HW1 3306   1.847   2.201   0.717 -0.8403 -3.7467  1.2834
  827SOL    HW2 3307   1.882   2.159   0.870 -0.1822 -0.2492 -0.8300
  827SOL     MW 3308   1.891   2.212   0.795 -0.3937 -0.5740  0.2627
  828SOL     OW 3309   0.038   2.631   0.580  0.4228 -0.3890 -0.2655
  828SOL    HW1 3310   0.134   2.642   0.590 -0.2974 -0.1269 -0.7561
  828SOL    HW2 3311   0.012   2.682   0.502 -0.4570  1.9461  1.5018
  828SOL     MW 3312   0.047   2.640   0.571  0.2117 -0.0463 -0.0971
  829SOL     OW 3313   2.974   2.925   1.185 -0.0327  0.0517  0.6570
  829SOL    HW1 3314   2.902   2.925   1.116  1.0661  0.7653  1.6689
  829SOL    HW2 3315   3.019   2.842   1.177  0.3818 -1.1777 -1.3149
  829SOL     MW 3316   2.970   2.914   1.175  0.1670 -0.0163  0.5304
  830SOL     OW 3317   2.549   2.835   2.020  0.3238 -0.3334  0.2084
  830SOL    HW1 3318   2.457   2.829   1.985  1.4245 -0.6305  0.4002
  830SOL    HW2 3319   2.598   2.790   1.949 -0.7565  0.8540  3.0110
  830SOL     MW 3320   2.544   2.828   2.006  0.3265 -0.2159  0.6035
  831SOL     OW 3321   2.375   2.433   1.167 -0.2410 -0.0459  0.2911
  831SOL    HW1 3322   2.333   2.368   1.230 -1.0787 -0.4733 -0.3832
  831SOL    HW2 3323   2.466   2.407   1.158 -1.9846  1.7605  1.0390
  831SOL     MW 3324   2.381   2.421   1.174 -0.5816  0.1360  0.3008
  832SOL     OW 3325   2.348   2.198   1.849  0.3531  0.1655  0.4853
  832SOL    HW1 3326   2.366   2.283   1.888 -0.6067  2.3553  0.1531
  832SOL    HW2 3327   2.421   2.140   1.850 -0.0089 -2.0318  0.2004
  832SOL     MW 3328   2.360   2.201   1.855  0.1787  0.1645  0.4039
  833SOL     OW 3329   1.727   2.485   0.877 -0.7099 -0.0552  1.0287
  833SOL    HW1 3330   1.652   2.455   0.923  2.0488 -5.0537 -0.0625
  833SOL    HW2 3331   1.758   2.561   0.923 -3.6155 -3.9546 -2.5261
  833SOL     MW 3332   1.721   2.491   0.889 -0.7293 -1.2292  0.4157
  834SOL     OW 3333   2.092   2.412   0.576 -0.2512 -0.1385  0.1186
  834SOL    HW1 3334   2.005   2.379   0.569 -0.3458 -2.6871  0.6515
  834SOL    HW2 3335   2.130   2.404   0.487 -0.8018  1.7166 -2.3433
  834SOL     MW 3336   2.085   2.407   0.563 -0.3363 -0.2300 -0.1359
  835SOL     OW 3337   1.793   2.581   0.634 -0.1643  0.3661 -0.1959
  835SOL    HW1 3338   1.743   2.548   0.714 -0.6462 -2.3810  3.5721
  835SOL    HW2 3339   1.861   2.619   0.686 -1.3340  0.2642  1.7707
  835SOL     MW 3340   1.796   2.582   0.651 -0.3822 -0.0098  0.5607
  836SOL     OW 3341   1.886   2.193   1.581  0.5445 -0.5578  0.1657
  836SOL    HW1 3342   1.979   2.219   1.592 -0.0853 -0.0371 -1.4868
  836SOL    HW2 3343   1.834   2.269   1.603 -1.5171 -0.7910 -1.3151
  836SOL     MW 3344   1.891   2.206   1.585  0.1894 -0.5199 -0.2477
  837SOL     OW 3345   2.142   0.206   0.719  0.1971  0.4307 -0.6419
  837SOL    HW1 3346   2.051   0.222   0.686  2.7704  0.4003 -0.2002
  837SOL    HW2 3347   2.195   0.148   0.666 -3.2445 -0.7138  2.3455
  837SOL     MW 3348   2.137   0.200   0.708  0.0826  0.2757 -0.1895
  838SOL     OW 3349   2.930   2.026   0.929  0.3202 -0.0773  0.1891
  838SOL    HW1 3350   2.860   1.963   0.950 -0.4923 -0.8149 -0.9450
  838SOL    HW2 3351   3.007   1.967   0.924  0.3335 -0.4460  0.3770
  838SOL     MW 3352   2.931   2.010   0.931  0.2147 -0.2232  0.0642
  839SOL     OW 3353   1.540   2.333   1.037  0.3635 -0.0164 -0.0846
  839SOL    HW1 3354   1.552   2.393   1.106 -2.4146  0.7633 -1.2305
  839SOL    HW2 3355   1.541   2.240   1.074 -1.1472 -0.4704  0.9758
  839SOL     MW 3356   1.542   2.329   1.051 -0.2024  0.0266 -0.0959
  840SOL     OW 3357   2.363   2.202   2.444  0.2640 -0.3662  0.1921
  840SOL    HW1 3358   2.328   2.282   2.412 -1.7796 -1.3299 -1.4935
  840SOL    HW2 3359   2.344   2.220   2.540  0.4798  0.8758  0.8360
  840SOL     MW 3360   2.356   2.215   2.452  0.0228 -0.3295  0.0546
  841SOL     OW 3361   2.063   2.442   0.128  0.0011 -0.3523 -0.3290
  841SOL    HW1 3362   2.117   2.498   0.070 -0.2097  3.5126  0.4373
  841SOL    HW2 3363   2.043   2.368   0.071 -2.6086 -1.9841 -0.6582
  841SOL     MW 3364   2.067   2.440   0.113 -0.3711 -0.0577 -0.2713
  842SOL     OW 3365   2.683   2.078   1.544  0.4205 -0.1937 -0.0630
  842SOL    HW1 3366   2.612   2.043   1.599 -0.8252  1.5500 -3.1349
  842SOL    HW2 3367   2.631   2.099   1.464 -1.1053  0.0202 -0.8965
  842SOL     MW 3368   2.666   2.076   1.541  0.0548  0.0646 -0.5783
  843SOL     OW 3369   2.670   2.755   1.785 -0.3099 -0.1922  0.0151
  843SOL    HW1 3370   2.756   2.713   1.790  1.2274  0.3290  1.1097
  843SOL    HW2 3371   2.609   2.696   1.728  1.1061 -2.2990 -1.2030
  843SOL     MW 3372   2.674   2.742   1.778  0.0797 -0.4014 -0.0012
  844SOL     OW 3373   2.656   2.383   1.157 -0.9894  0.1918 -0.5018
  844SOL    HW1 3374   2.700   2.373   1.069  2.5744  0.5371 -0.8217
  844SOL    HW2 3375   2.714   2.449   1.203  3.2825 -1.3369 -0.4703
  844SOL     MW 3376   2.669   2.390   1.152  0.0445  0.0357 -0.5398
  845SOL     OW 3377   2.852   2.496   0.298 -0.1292  0.6482 -0.0515
  845SOL    HW1 3378   2.813   2.410   0.264 -3.1387 -0.4145 -1.9950
  845SOL    HW2 3379   2.830   2.502   0.391  1.9184  0.9497 -3.1167
  845SOL     MW 3380   2.844   2.485   0.306 -0.2561  0.5477 -0.7123
  846SOL     OW 3381   1.591   2.864   0.792  0.6464 -0.4316  0.4102
  846SOL    HW1 3382   1.676   2.909   0.812 -1.1533  1.8958  1.0166
  846SOL    HW2 3383   1.526   2.923   0.838 -0.0813 -0.7769 -1.6283
  846SOL     MW 3384   1.593   2.878   0.801  0.3129 -0.1701  0.2212
  847SOL     OW 3385   2.628   1.953   0.193 -0.4030 -0.1848  0.0299
  847SOL    HW1 3386   2.713   1.914   0.223 -1.3956 -0.0315  1.9911
  847SOL    HW2 3387   2.595   1.900   0.125 -2.0925 -1.5050  1.5977
  847SOL     MW 3388   2.635   1.941   0.188 -0.7569 -0.3388  0.4955
  848SOL     OW 3389   2.532   2.122   1.301 -0.2896 -0.3283 -0.1550
  848SOL    HW1 3390   2.577   2.180   1.240 -2.3309 -0.6357 -0.2612
  848SOL    HW2 3391   2.515   2.053   1.243  0.8604  2.2509 -0.1666
  848SOL     MW 3392   2.536   2.120   1.285 -0.4072 -0.0285 -0.1705
  849SOL     OW 3393   1.966   2.691   0.790  0.0987  0.5559 -0.0787
  849SOL    HW1 3394   1.993   2.615   0.841 -1.0070 -0.2929  1.4090
  849SOL    HW2 3395   2.046   2.712   0.741 -1.4013  3.2344  1.0299
  849SOL     MW 3396   1.980   2.683   0.790 -0.2451  0.7973  0.2639
  850SOL     OW 3397   2.169   1.960   1.678  0.0515 -0.0234 -0.0305
  850SOL    HW1 3398   2.095   1.903   1.646 -1.6816 -0.3364 -0.4991
  850SOL    HW2 3399   2.145   2.051   1.655  0.0353 -1.4178  0.6065
  850SOL     MW 3400   2.156   1.964   1.671 -0.1793 -0.2487 -0.0083
  851SOL     OW 3401   2.232   2.375   0.331  0.0429  0.0326  0.5827
  851SOL    HW1 3402   2.175   2.395   0.257  2.8557  0.1419  0.5948
  851SOL    HW2 3403   2.297   2.447   0.332  1.8456 -0.5868  4.2779
  851SOL     MW 3404   2.233   2.387   0.322  0.6519 -0.0347  1.0718
  852SOL     OW 3405   2.312   2.116   0.252 -0.4996 -0.0109 -0.9782
  852SOL    HW1 3406   2.293   2.205   0.284 -0.2426  1.4043 -0.3912
  852SOL    HW2 3407   2.391   2.131   0.194  1.6501 -1.7793  0.2185
  852SOL     MW 3408   2.320   2.130   0.248 -0.1820 -0.0575 -0.7428
  853SOL     OW 3409   2.423   2.448   1.924 -0.2487 -0.1517  0.8609
  853SOL    HW1 3410   2.441   2.492   1.839 -0.5854  0.3982 -0.5154
  853SOL    HW2 3411   2.499   2.411   1.967 -0.6449 -0.5823  1.0138
  853SOL     MW 3412   2.435   2.449   1.918 -0.3454 -0.1359  0.6995
  854SOL     OW 3413   2.859   2.216   0.743  0.1710  0.1038 -0.2367
  854SOL    HW1 3414   2.792   2.164   0.698 -1.3630 -0.9813  1.0681
  854SOL    HW2 3415   2.890   2.151   0.809 -0.3537 -0.6194  1.4058
  854SOL     MW 3416   2.854   2.201   0.746 -0.1006 -0.1348  0.1521
  855SOL     OW 3417   2.706   2.242   0.297 -0.9045  0.0877 -0.3553
  855SOL    HW1 3418   2.628   2.252   0.354  1.5628  0.4401 -0.2526
  855SOL    HW2 3419   2.773   2.201   0.353  0.9483 -0.4985 -2.2423
  855SOL     MW 3420   2.705   2.238   0.312 -0.3345  0.0568 -0.5907
  856SOL     OW 3421   2.205   1.878   0.175  0.0918  0.0581 -0.2502
  856SOL    HW1 3422   2.108   1.881   0.194 -0.3939 -0.2965 -0.0539
  856SOL    HW2 3423   2.237   1.968   0.205  0.1136  0.7822 -0.1418
  856SOL     MW 3424   2.196   1.890   0.181  0.0306  0.1069 -0.2100
  857SOL     OW 3425   2.504   1.905   0.454  0.5464  0.3465 -0.0106
  857SOL    HW1 3426   2.540   1.930   0.372  2.3492 -2.1442  1.7246
  857SOL    HW2 3427   2.414   1.890   0.442  4.5032 -1.3421  0.1426
  857SOL     MW 3428   2.497   1.906   0.442  1.3063 -0.2049  0.2386
  858SOL     OW 3429   2.917   2.668   1.753 -0.3006 -0.3686 -0.1403
  858SOL    HW1 3430   3.007   2.673   1.779 -1.4595  0.3278 -0.6098
  858SOL    HW2 3431   2.896   2.571   1.766  0.9275 -1.4634 -2.1993
  858SOL     MW 3432   2.926   2.656   1.758 -0.2914 -0.4212 -0.4739
  859SOL     OW 3433   2.101   2.463   0.905  0.1619 -0.1554 -0.1076
  859SOL    HW1 3434   2.072   2.391   0.847  2.2956  1.2928 -0.0908
  859SOL    HW2 3435   2.180   2.424   0.933  1.2408  0.9221 -1.5592
  859SOL     MW 3436   2.107   2.449   0.901  0.5858  0.1778 -0.2969
  860SOL     OW 3437   2.634   2.632   0.182 -0.0574 -0.1166  0.1661
  860SOL    HW1 3438   2.707   2.596   0.229 -1.3364  0.0789 -0.6933
  860SOL    HW2 3439   2.669   2.709   0.129 -1.0787  0.3872 -1.9933
  860SOL     MW 3440   2.648   2.638   0.182 -0.3609 -0.0244 -0.2322
  861SOL     OW 3441   1.572   2.097   1.161 -0.1990  0.5889  0.0443
  861SOL    HW1 3442   1.643   2.095   1.228 -0.5929 -1.5122 -3.0076
  861SOL    HW2 3443   1.505   2.039   1.199  0.8003  0.3363  2.2314
  861SOL     MW 3444   1.572   2.089   1.175 -0.1191  0.2784 -0.0698
  862SOL     OW 3445   2.402   1.843   1.552 -0.2961 -0.4902 -0.2368
  862SOL    HW1 3446   2.336   1.883   1.612  2.0335 -1.3023  1.2354
  862SOL    HW2 3447   2.376   1.862   1.464  1.2686  0.4716  0.7137
  862SOL     MW 3448   2.390   1.851   1.548  0.2177 -0.4705  0.0828
  863SOL     OW 3449   3.070   1.817   1.157 -0.3110 -0.3517 -0.2946
  863SOL    HW1 3450   3.126   1.780   1.226  1.9203  1.3008 -0.6851
  863SOL    HW2 3451   3.050   1.909   1.193  1.1021 -0.7886  1.8327
  863SOL     MW 3452   3.075   1.824   1.171  0.1698 -0.1913 -0.0654
  864SOL     OW 3453   0.043   1.866   0.906  0.4583 -0.0263 -0.6702
  864SOL    HW1 3454  -0.002   1.830   0.980 -0.5352  0.8158 -1.2976
  864SOL    HW2 3455   0.008   1.816   0.833  2.8252 -1.2240  1.4668
  864SOL     MW 3456   0.033   1.855   0.906  0.6395 -0.0732 -0.4710
  865SOL     OW 3457   2.514   2.175   0.078  0.3406 -0.2547  0.0287
  865SOL    HW1 3458   2.582   2.105   0.121  1.9450 -0.5138  0.4914
  865SOL    HW2 3459   2.475   2.126   0.002  2.5353  1.2492  0.4167
  865SOL     MW 3460   2.518   2.159   0.074  0.8419 -0.0905  0.1410
  866SOL     OW 3461   2.707   2.356   1.591 -0.1130  0.5745  0.0960
  866SOL    HW1 3462   2.708   2.259   1.580 -1.6742  1.5768 -0.5362
  866SOL    HW2 3463   2.747   2.393   1.516 -2.0573  1.3630  0.7266
  866SOL     MW 3464   2.713   2.348   1.580 -0.5755  0.8108  0.0958
  867SOL     OW 3465   0.077   2.730   1.868  0.0806  0.7216 -0.0608
  867SOL    HW1 3466   0.159   2.749   1.909 -1.3895 -0.3644 -1.3693
  867SOL    HW2 3467   0.066   2.805   1.811 -0.6862 -1.0725  1.1753
  867SOL     MW 3468   0.087   2.742   1.866 -0.2145  0.3416 -0.0703
  868SOL     OW 3469   2.802   2.548   0.568  0.1782  0.4217 -0.2752
  868SOL    HW1 3470   2.724   2.490   0.564 -2.7182  3.6808 -0.1271
  868SOL    HW2 3471   2.773   2.628   0.524 -0.0037  0.0546 -1.5344
  868SOL     MW 3472   2.788   2.551   0.562 -0.2279  0.8032 -0.4218
  869SOL     OW 3473   1.891   2.335   1.059  0.0677 -0.0396 -0.2916
  869SOL    HW1 3474   1.974   2.384   1.048  1.4828 -1.6381  1.3898
  869SOL    HW2 3475   1.828   2.366   0.991 -2.1832 -1.5762 -3.3957
  869SOL     MW 3476   1.893   2.346   1.049 -0.0426 -0.4533 -0.4793
  870SOL     OW 3477   2.268   0.040   0.539 -0.5601 -0.3178  0.0512
  870SOL    HW1 3478   2.320   0.094   0.474 -2.1076  1.7181 -1.2915
  870SOL    HW2 3479   2.317  -0.042   0.547 -1.0255 -0.8982  0.1704
  870SOL     MW 3480   2.282   0.036   0.531 -0.8257 -0.1257 -0.1102
  871SOL     OW 3481   2.460   2.072   0.865  0.4792 -0.8991  0.4136
  871SOL    HW1 3482   2.403   2.028   0.798  0.1438 -2.5075  3.6625
  871SOL    HW2 3483   2.414   2.156   0.887 -0.1381 -1.5690 -0.1126
  871SOL     MW 3484   2.447   2.077   0.859  0.3535 -1.1997  0.7728
  872SOL     OW 3485   2.023   2.583   1.385 -0.5601 -0.3027 -0.0190
  872SOL    HW1 3486   1.969   2.612   1.460  2.8343 -0.5197  1.1615
  872SOL    HW2 3487   1.978   2.502   1.355  0.9386 -1.5514  2.9540
  872SOL     MW 3488   2.010   2.576   1.391  0.0855 -0.4961  0.5290
  873SOL     OW 3489   2.823   2.072   1.912  0.0886  0.7259  0.3954
  873SOL    HW1 3490   2.849   2.134   1.982 -1.2490 -0.7287 -1.7999
  873SOL    HW2 3491   2.898   2.069   1.856  0.2394  0.8732  2.2823
  873SOL     MW 3492   2.836   2.080   1.914 -0.0680  0.5534  0.3547
  874SOL     OW 3493   2.442   1.514   2.335 -0.3983 -0.1383  0.5690
  874SOL    HW1 3494   2.374   1.464   2.297  1.7676 -0.5246  3.7947
  874SOL    HW2 3495   2.519   1.458   2.321 -1.2545 -1.4616 -1.9038
  874SOL     MW 3496   2.443   1.500   2.328 -0.2255 -0.3639  0.6684
  875SOL     OW 3497   2.327   2.311   0.919 -0.4322 -0.1380 -0.3459
  875SOL    HW1 3498   2.391   2.358   0.858 -0.2420  1.2971 -3.5851
  875SOL    HW2 3499   2.346   2.332   1.011 -0.1848  0.7712 -1.7061
  875SOL     MW 3500   2.338   2.320   0.923 -0.3745  0.1713 -0.9527
  876SOL     OW 3501   3.046   2.335   1.326 -0.3673 -0.3529  0.1518
  876SOL    HW1 3502   3.103   2.341   1.246  0.3931 -2.2608 -3.1415
  876SOL    HW2 3503   3.103   2.382   1.380  2.2157 -0.1484 -1.3806
  876SOL     MW 3504   3.061   2.342   1.323  0.0738 -0.5777 -0.4849
  877SOL     OW 3505   3.046   2.759   0.331 -0.6882 -0.3247 -0.8212
  877SOL    HW1 3506   3.022   2.821   0.262  2.4748  0.2334 -0.7257
  877SOL    HW2 3507   3.073   2.678   0.285  0.8267  0.6667 -0.4330
  877SOL     MW 3508   3.047   2.757   0.315 -0.0710 -0.1202 -0.7573
  878SOL     OW 3509   2.339   1.821   1.283 -0.8746 -0.6091 -0.5972
  878SOL    HW1 3510   2.288   1.744   1.307 -0.8373  0.1434  1.2697
  878SOL    HW2 3511   2.421   1.798   1.237  1.0018 -1.6359  0.6608
  878SOL     MW 3512   2.343   1.807   1.280 -0.6221 -0.6453 -0.1849
  879SOL     OW 3513   2.777   2.418   0.918  0.0444  0.3234 -0.3408
  879SOL    HW1 3514   2.829   2.490   0.937 -0.1040  0.1938 -0.5077
  879SOL    HW2 3515   2.818   2.357   0.856 -3.6689  1.6580 -1.4843
  879SOL     MW 3516   2.789   2.420   0.912 -0.4651  0.4824 -0.5137
  880SOL     OW 3517   2.669   2.026   0.664 -0.2905  0.5095 -0.2252
  880SOL    HW1 3518   2.611   2.046   0.742 -1.3195  1.0673  3.0683
  880SOL    HW2 3519   2.605   1.996   0.597 -3.5344 -1.0611  0.8926
  880SOL     MW 3520   2.653   2.025   0.665 -0.8543  0.3759  0.3568
  881SOL     OW 3521   2.934   2.693   0.772 -0.2558  0.0219  0.1088
  881SOL    HW1 3522   2.874   2.630   0.725 -3.7056 -1.5911  0.0764
  881SOL    HW2 3523   3.017   2.683   0.728 -1.3422 -0.5821 -0.1539
  881SOL     MW 3524   2.937   2.683   0.760 -0.8543 -0.2706  0.0698
  882SOL     OW 3525   2.330   2.771   1.878  0.0703  0.0024 -0.0183
  882SOL    HW1 3526   2.290   2.779   1.792  2.0741 -1.2069  0.5981
  882SOL    HW2 3527   2.254   2.737   1.924  0.7222  1.8452 -0.2272
  882SOL     MW 3528   2.315   2.767   1.873  0.4207  0.0860  0.0355
  883SOL     OW 3529   2.260   2.242   1.356 -0.1694  0.4998  0.1734
  883SOL    HW1 3530   2.326   2.177   1.347 -0.2098  0.3472 -0.4840
  883SOL    HW2 3531   2.187   2.206   1.295  0.0812  0.0748 -1.1426
  883SOL     MW 3532   2.259   2.229   1.347 -0.1417  0.4236 -0.0870
  884SOL     OW 3533   1.924   1.859   1.123 -0.2914  0.5444  0.0493
  884SOL    HW1 3534   1.878   1.898   1.050  0.6667 -1.3181 -1.1493
  884SOL    HW2 3535   2.012   1.836   1.095  0.3573 -0.2785 -2.7173
  884SOL     MW 3536   1.930   1.861   1.110 -0.0794  0.1901 -0.4739
  885SOL     OW 3537   2.792   2.407   1.856 -0.8150  0.1806 -0.1051
  885SOL    HW1 3538   2.863   2.344   1.834  0.6689 -2.8450  2.3448
  885SOL    HW2 3539   2.751   2.418   1.771 -0.7923  2.1888 -0.0575
  885SOL     MW 3540   2.796   2.400   1.842 -0.6162  0.0464  0.2244
  886SOL     OW 3541   2.813   2.528   1.358 -0.3372 -0.5766  0.2587
  886SOL    HW1 3542   2.883   2.462   1.348 -1.2554 -2.5113  2.6953
  886SOL    HW2 3543   2.854   2.615   1.380  0.9845  0.3803  1.4979
  886SOL     MW 3544   2.827   2.531   1.360 -0.2839 -0.7056  0.7437
  887SOL     OW 3545   2.297   2.616   1.472  0.4343 -0.1405  0.4094
  887SOL    HW1 3546   2.328   2.658   1.392 -2.6238  0.5108  0.3738
  887SOL    HW2 3547   2.229   2.563   1.435  0.4502  1.8892  0.7408
  887SOL     MW 3548   2.292   2.615   1.457  0.0329  0.2133  0.4484
  888SOL     OW 3549   1.794   2.075   1.333 -0.1452  0.2270 -0.4652
  888SOL    HW1 3550   1.864   2.059   1.271 -0.1611 -0.6289  1.6207
  888SOL    HW2 3551   1.834   2.121   1.410  0.3082  0.7037  0.3496
  888SOL     MW 3552   1.809   2.079   1.335 -0.0875  0.1770 -0.0825
  889SOL     OW 3553   2.328   2.051   2.099  0.0952 -0.5658 -0.1353
  889SOL    HW1 3554   2.408   2.054   2.153  1.6003 -1.2964 -0.6176
  889SOL    HW2 3555   2.343   2.081   2.011  0.5516 -0.9053  1.5466
  889SOL     MW 3556   2.340   2.056   2.095  0.3540 -0.7070  0.0230
  890SOL     OW 3557   0.120   2.300   0.101  0.2435  0.3719  0.1050
  890SOL    HW1 3558   0.101   2.395   0.116  1.4955 -0.1828  1.0578
  890SOL    HW2 3559   0.130   2.277   0.195  0.3810  1.0504  1.9895
  890SOL     MW 3560   0.118   2.309   0.115  0.4269  0.3882  0.4794
  891SOL     OW 3561   3.052   2.048   1.329  0.0080  0.0541 -0.0672
  891SOL    HW1 3562   3.149   2.034   1.331 -0.9314  1.0125  1.0393
  891SOL    HW2 3563   3.040   2.138   1.346  0.7626 -1.1710 -0.1449
  891SOL     MW 3564   3.064   2.058   1.331 -0.0164  0.0189  0.0686
  892SOL     OW 3565   2.345   2.389   2.977  0.1380  0.3399 -0.0729
  892SOL    HW1 3566   2.362   2.343   3.058  2.6270  0.5365  1.6625
  892SOL    HW2 3567   2.423   2.363   2.927  1.0771 -0.2568  0.7308
  892SOL     MW 3568   2.358   2.380   2.981  0.5903  0.2871  0.2621
  893SOL     OW 3569   1.598   2.534   1.225 -0.3295  0.1800  0.1854
  893SOL    HW1 3570   1.512   2.522   1.270 -1.7758 -1.1270 -2.3080
  893SOL    HW2 3571   1.665   2.479   1.266 -2.2296  0.6790 -3.1500
  893SOL     MW 3572   1.595   2.525   1.236 -0.7710  0.0734 -0.5837
  894SOL     OW 3573   2.855   1.898   0.519 -0.0091  0.0194 -0.0417
  894SOL    HW1 3574   2.779   1.927   0.583 -1.2197  0.1513  3.1108
  894SOL    HW2 3575   2.813   1.844   0.449 -3.5871 -0.9104 -4.3743
  894SOL     MW 3576   2.839   1.895   0.518 -0.6409 -0.0859 -0.1974
  895SOL     OW 3577   2.082   2.131   1.183  0.0797  0.3546 -0.1947
  895SOL    HW1 3578   2.036   2.183   1.116 -1.2560  1.1116  0.4444
  895SOL    HW2 3579   2.105   2.052   1.136 -0.1518  0.2484 -0.2232
  895SOL     MW 3580   2.079   2.128   1.168 -0.1271  0.4405 -0.1142
  896SOL     OW 3581   2.194   2.837   1.057 -0.2257  0.5119  0.2711
  896SOL    HW1 3582   2.261   2.799   1.117 -0.4305 -0.0950 -0.0671
  896SOL    HW2 3583   2.119   2.776   1.066  2.6309 -0.0523 -1.0707
  896SOL     MW 3584   2.193   2.824   1.066  0.1242  0.3573  0.0495
  897SOL     OW 3585   2.968   2.948   0.154 -0.2997 -0.1658  0.2781
  897SOL    HW1 3586   3.058   2.944   0.112  1.8856  3.3800  0.5194
  897SOL    HW2 3587   2.900   2.900   0.106  0.6649  3.1730  0.0544
  897SOL     MW 3588   2.971   2.941   0.142  0.1159  0.7425  0.2805
  898SOL     OW 3589   2.078   0.183   1.411 -0.2310  0.1192  0.0985
  898SOL    HW1 3590   2.017   0.113   1.377 -0.4853  2.0038 -2.2289
  898SOL    HW2 3591   2.111   0.241   1.340  3.4766 -0.4302  2.0357
  898SOL     MW 3592   2.074   0.181   1.397  0.2246  0.2954  0.0470
  899SOL     OW 3593   2.887   2.960   0.654  0.1099  0.2943  0.7053
  899SOL    HW1 3594   2.891   2.911   0.738 -1.2300 -0.4398  1.3815
  899SOL    HW2 3595   2.797   2.995   0.639  0.6472  1.4996 -1.1523
  899SOL     MW 3596   2.876   2.958   0.663  0.0040  0.3565  0.5494
  900SOL     OW 3597   0.121   2.376   1.123  0.1421  0.1741 -0.3813
  900SOL    HW1 3598   0.098   2.465   1.094  1.8225  0.5386  0.6033
  900SOL    HW2 3599   0.133   2.322   1.044 -2.5912 -0.7006  0.2860
  900SOL     MW 3600   0.120   2.381   1.109  0.0032  0.1068 -0.1634
  901SOL     OW 3601   1.731   2.804   1.755 -0.1801  0.4021 -0.5339
  901SOL    HW1 3602   1.797   2.765   1.697  0.2925 -0.1832  0.6121
  901SOL    HW2 3603   1.654   2.775   1.698 -2.0123 -2.0116 -0.8113
  901SOL     MW 3604   1.730   2.795   1.740 -0.3595  0.0064 -0.4193
  902SOL     OW 3605   2.576   2.014   1.803 -0.0530 -0.5846  0.2769
  902SOL    HW1 3606   2.555   1.928   1.843 -1.0476  1.4710  1.8843
  902SOL    HW2 3607   2.663   2.033   1.840  1.1355 -0.6034  0.8390
  902SOL     MW 3608   2.584   2.005   1.813 -0.0274 -0.3159  0.5631
  903SOL     OW 3609   1.648   2.778   0.515 -0.2314  0.1994 -0.0700
  903SOL    HW1 3610   1.717   2.711   0.548 -0.9557  0.1444  1.0654
  903SOL    HW2 3611   1.606   2.821   0.596 -0.7991  1.1971  1.8592
  903SOL     MW 3612   1.651   2.775   0.530 -0.4018  0.3238  0.3344
  904SOL     OW 3613   2.501   2.530   1.664 -0.1338  0.7492 -0.2101
  904SOL    HW1 3614   2.437   2.549   1.594  2.0103 -4.3762  0.0500
  904SOL    HW2 3615   2.566   2.463   1.637  2.7408  2.0794  1.9447
  904SOL     MW 3616   2.501   2.524   1.651  0.5283  0.2485  0.1085
  905SOL     OW 3617   2.341   2.592   2.141  0.1136 -0.1155  0.6142
  905SOL    HW1 3618   2.391   2.555   2.070  0.6918  3.4813  0.0853
  905SOL    HW2 3619   2.298   2.515   2.187 -0.7920 -1.2334 -1.0869
  905SOL     MW 3620   2.342   2.577   2.138  0.0704  0.2116  0.3200
  906SOL     OW 3621   2.510   2.489   0.823 -0.1371 -0.8757 -0.1019
  906SOL    HW1 3622   2.589   2.490   0.880  1.2325  0.3953  1.1914
  906SOL    HW2 3623   2.476   2.579   0.831  0.2760 -1.7987 -0.5779
  906SOL     MW 3624   2.516   2.501   0.831  0.0981 -0.8297  0.0059
  907SOL     OW 3625   2.599   2.867   1.264  0.0606  0.5026 -0.0271
  907SOL    HW1 3626   2.666   2.888   1.329  1.9639 -1.6150  0.1701
  907SOL    HW2 3627   2.641   2.885   1.178  1.6009  0.5488  1.6165
  907SOL     MW 3628   2.613   2.872   1.261  0.5150  0.2293  0.2157
  908SOL     OW 3629   2.706   2.390   0.029  0.3498  0.2313  0.1437
  908SOL    HW1 3630   2.642   2.319   0.055 -3.1120  0.1226  2.9203
  908SOL    HW2 3631   2.670   2.461   0.078  1.9140 -2.7504 -1.5402
  908SOL     MW 3632   2.693   2.390   0.039  0.0995 -0.1764  0.2879
  909SOL     OW 3633   1.628   0.230   1.013 -0.0656  0.0973 -0.3152
  909SOL    HW1 3634   1.664   0.315   0.987 -3.1702  1.4232  1.9493
  909SOL    HW2 3635   1.600   0.245   1.106  0.4672 -0.3805 -0.9448
  909SOL     MW 3636   1.629   0.243   1.022 -0.4049  0.2092 -0.0995
  910SOL     OW 3637   2.280   1.735   0.393  0.3782  0.3573  0.2749
  910SOL    HW1 3638   2.224   1.666   0.421  0.2992  1.4654 -1.2035
  910SOL    HW2 3639   2.242   1.779   0.315  3.8385 -0.0472 -0.9214
  910SOL     MW 3640   2.267   1.731   0.387  0.8243  0.4501 -0.0780
  911SOL     OW 3641   2.158   2.249   1.635 -0.3916  0.8412  0.2903
  911SOL    HW1 3642   2.230   2.237   1.694 -0.3244 -0.0236 -2.3537
  911SOL    HW2 3643   2.201   2.267   1.552  2.3317  3.7623  0.9220
  911SOL     MW 3644   2.173   2.250   1.632 -0.0234  1.1125  0.0248
  912SOL     OW 3645   2.885   1.895   1.486  0.4845  0.1190  0.1637
  912SOL    HW1 3646   2.953   1.945   1.433  1.2947  0.9351 -1.5025
  912SOL    HW2 3647   2.814   1.957   1.500 -1.8265  1.0130 -0.4864
  912SOL     MW 3648   2.885   1.910   1.481  0.2865  0.3446 -0.1419
  913SOL     OW 3649   2.538   2.956   0.382 -0.3803 -0.0261  0.1452
  913SOL    HW1 3650   2.624   2.915   0.407  1.6466  1.1597  2.2106
  913SOL    HW2 3651   2.472   2.885   0.382 -1.5703  0.0022  2.5296
  913SOL     MW 3652   2.541   2.941   0.386 -0.2698  0.1341  0.7323
  914SOL     OW 3653   2.784   1.627   0.031 -0.6034  0.3233  0.4316
  914SOL    HW1 3654   2.799   1.682  -0.042  0.3022 -3.6761  1.4588
  914SOL    HW2 3655   2.689   1.612   0.031  3.5305  3.7620  1.3766
  914SOL     MW 3656   2.774   1.632   0.021  0.0615  0.2493  0.6918
  915SOL     OW 3657   1.851   0.160   0.214 -0.4105 -0.2794 -0.1457
  915SOL    HW1 3658   1.897   0.103   0.278 -1.0036 -0.6698  0.0503
  915SOL    HW2 3659   1.757   0.149   0.224  0.9403  0.3506  3.6708
  915SOL     MW 3660   1.845   0.151   0.224 -0.3105 -0.2477  0.3837
  916SOL     OW 3661   1.825   2.095   1.956  0.0903 -0.4272  0.5247
  916SOL    HW1 3662   1.838   2.192   1.939 -0.3465  0.5539  0.9853
  916SOL    HW2 3663   1.813   2.050   1.871  0.1336 -0.3850 -1.4207
  916SOL     MW 3664   1.825   2.102   1.942  0.0384 -0.2922  0.3288
  917SOL     OW 3665   2.288   2.328   2.696  0.1500  0.4141  0.0916
  917SOL    HW1 3666   2.251   2.316   2.786  0.5377 -2.0468  1.3469
  917SOL    HW2 3667   2.255   2.415   2.670  1.3200  0.8431  1.3666
  917SOL     MW 3668   2.279   2.338   2.705  0.3555  0.1460  0.4255
  918SOL     OW 3669   2.067   1.657   2.668  0.3819  0.4822  0.1925
  918SOL    HW1 3670   1.998   1.678   2.604 -1.5798  1.9877  1.7607
  918SOL    HW2 3671   2.135   1.721   2.650  0.9429 -1.8261 -1.1306
  918SOL     MW 3672   2.067   1.668   2.657  0.1971  0.3763  0.2249
  919SOL     OW 3673   3.059   2.401   2.272 -0.2429 -0.2508  0.1727
  919SOL    HW1 3674   2.999   2.336   2.251  3.4844  2.9833  2.4301
  919SOL    HW2 3675   3.124   2.388   2.209  1.2209  0.8978 -0.8486
  919SOL     MW 3676   3.059   2.391   2.261  0.4420  0.3274  0.3358
  920SOL     OW 3677   2.769   2.848   0.012  0.5402 -0.2838  0.2627
  920SOL    HW1 3678   2.690   2.901   0.035 -0.0340  2.7198 -1.5630
  920SOL    HW2 3679   2.743   2.786  -0.060  0.5484  2.7532 -3.1670
  920SOL     MW 3680   2.755   2.847   0.005  0.4655  0.5132 -0.4307
  921SOL     OW 3681   2.525   2.628   2.699 -0.0820 -0.7992  0.0317
  921SOL    HW1 3682   2.589   2.616   2.628 -0.0464  3.5556 -3.4928
  921SOL    HW2 3683   2.541   2.553   2.756  0.2569  1.9959 -3.7244
  921SOL     MW 3684   2.535   2.617   2.697 -0.0326  0.1442 -0.9289
  922SOL     OW 3685   2.026   2.820   0.268  0.0044 -0.4713 -0.0907
  922SOL    HW1 3686   2.020   2.877   0.185  1.7051 -1.1349  1.4114
  922SOL    HW2 3687   1.964   2.743   0.241 -0.8038 -0.6867 -3.1816
  922SOL     MW 3688   2.017   2.817   0.253  0.1221 -0.5873 -0.3003
  923SOL     OW 3689   2.195   2.817   1.628  0.4215  0.3220  0.3020
  923SOL    HW1 3690   2.228   2.753   1.563  1.0638  1.0064  0.1678
  923SOL    HW2 3691   2.225   2.904   1.600  0.0685 -2.3240  0.9168
  923SOL     MW 3692   2.204   2.820   1.616  0.4596  0.0632  0.3654
  924SOL     OW 3693   1.160   2.762   2.486  0.2940 -0.1345 -0.1959
  924SOL    HW1 3694   1.197   2.835   2.430  1.7525  1.7961  2.0942
  924SOL    HW2 3695   1.231   2.710   2.520  1.4241  1.6683  0.7492
  924SOL     MW 3696   1.174   2.765   2.483  0.6355  0.3581  0.2309
  925SOL     OW 3697   2.968   0.209   2.684 -0.6213 -0.1901 -0.3722
  925SOL    HW1 3698   2.999   0.245   2.599 -1.4558 -1.3270  2.4490
  925SOL    HW2 3699   2.936   0.284   2.726  3.5242 -0.5521  0.8721
  925SOL     MW 3700   2.968   0.224   2.679 -0.1845 -0.3878  0.1642
  926SOL     OW 3701   2.656   2.390   2.088 -0.0521  0.1589  0.1721
  926SOL    HW1 3702   2.695   2.460   2.137  0.3276  0.8920  0.3972
  926SOL    HW2 3703   2.710   2.405   2.006  2.0802 -0.9845  0.0401
  926SOL     MW 3704   2.668   2.401   2.084  0.2793  0.1047  0.1844
  927SOL     OW 3705   2.370   0.165   0.293 -0.2763 -0.1081 -0.0293
  927SOL    HW1 3706   2.465   0.158   0.266 -1.3063 -0.8641 -1.7727
  927SOL    HW2 3707   2.322   0.135   0.222  0.6344  0.8480  1.5281
  927SOL     MW 3708   2.376   0.160   0.280 -0.2921 -0.0817 -0.0539
  928SOL     OW 3709   2.006   2.509   1.805 -0.4337 -0.1016 -0.5590
  928SOL    HW1 3710   2.040   2.429   1.769  2.7948 -2.0017  0.4523
  928SOL    HW2 3711   2.065   2.552   1.864 -0.3983  1.4284 -0.9811
  928SOL     MW 3712   2.018   2.504   1.808 -0.0031 -0.1504 -0.4813
  929SOL     OW 3713   2.760   2.350   2.433  0.4970 -0.0367  0.1998
  929SOL    HW1 3714   2.698   2.283   2.413 -2.2567  2.3036 -2.5513
  929SOL    HW2 3715   2.789   2.327   2.524  0.3406  0.9512 -2.7277
  929SOL     MW 3716   2.756   2.339   2.443  0.1130  0.4024 -0.5494
  930SOL     OW 3717   2.011   2.874   2.641  0.3729  0.3656  0.0619
  930SOL    HW1 3718   2.021   2.831   2.724 -3.6893  1.4010  0.4454
  930SOL    HW2 3719   2.092   2.930   2.639  1.4027 -2.5157  2.0851
  930SOL     MW 3720   2.023   2.876   2.652 -0.0272  0.1220  0.3794
  931SOL     OW 3721   2.933   2.841   2.186  0.1262  0.0400  0.4618
  931SOL    HW1 3722   3.005   2.780   2.186 -1.0507 -0.7292  1.6047
  931SOL    HW2 3723   2.888   2.825   2.101 -3.1182 -0.1193  0.2725
  931SOL     MW 3724   2.936   2.831   2.175 -0.4571 -0.0825  0.5876
  932SOL     OW 3725   2.825   1.919   2.549 -0.0436  0.0118  0.5946
  932SOL    HW1 3726   2.913   1.935   2.579  0.5063  1.7822 -0.2607
  932SOL    HW2 3727   2.830   1.939   2.458  0.7283 -2.3475  3.0372
  932SOL     MW 3728   2.837   1.924   2.541  0.1308 -0.0659  0.8041
  933SOL     OW 3729   2.067   2.812   2.238 -0.3882  0.3998 -0.0158
  933SOL    HW1 3730   2.159   2.834   2.246 -3.4308  1.4376 -2.9649
  933SOL    HW2 3731   2.032   2.895   2.208  4.2334 -0.4763  0.6638
  933SOL     MW 3732   2.075   2.826   2.235 -0.1799  0.4211 -0.3152
  934SOL     OW 3733   1.992   2.680   2.471  0.6852  0.3957  0.0630
  934SOL    HW1 3734   1.984   2.743   2.539 -0.2359 -0.4910 -0.8649
  934SOL    HW2 3735   2.021   2.720   2.387 -0.6606 -0.4030 -2.6112
  934SOL     MW 3736   1.995   2.693   2.469  0.3861  0.1733 -0.4123
  935SOL     OW 3737   2.623   1.607   1.796 -0.6839  0.1513 -0.0937
  935SOL    HW1 3738   2.709   1.580   1.760 -2.1831  1.7270 -1.1127
  935SOL    HW2 3739   2.571   1.607   1.722  0.4845  1.0289  4.7870
  935SOL     MW 3740   2.627   1.603   1.782 -0.7276  0.4750  0.4158
  936SOL     OW 3741   2.955   2.242   3.051 -0.2807 -0.1521 -0.6941
  936SOL    HW1 3742   3.038   2.281   3.086 -1.8293 -1.4158 -0.7604
  936SOL    HW2 3743   2.887   2.301   3.090  1.5700  4.2686 -1.5951
  936SOL     MW 3744   2.957   2.255   3.061 -0.2409  0.2644 -0.8217
  937SOL     OW 3745   1.983   2.194   2.629 -0.0815 -0.6419  0.5601
  937SOL    HW1 3746   2.063   2.169   2.681 -0.7491  1.1028  0.9234
  937SOL    HW2 3747   2.016   2.185   2.538  3.0012 -2.7041  0.2640
  937SOL     MW 3748   1.998   2.190   2.624  0.2371 -0.6838  0.5690
  938SOL     OW 3749   2.258   1.847   1.923  0.0966  0.1734 -0.0685
  938SOL    HW1 3750   2.222   1.897   1.851 -1.1651  0.7064  0.7870
  938SOL    HW2 3751   2.261   1.910   1.990  3.2614 -1.9098 -1.6561
  938SOL     MW 3752   2.253   1.862   1.922  0.3477 -0.0311 -0.1651
  939SOL     OW 3753   2.806   1.985   2.269 -0.1162 -1.0223 -0.0792
  939SOL    HW1 3754   2.813   1.929   2.194 -0.9310  1.4293 -0.0699
  939SOL    HW2 3755   2.709   2.009   2.274 -2.3081  0.6158  0.4339
  939SOL     MW 3756   2.794   1.980   2.260 -0.5129 -0.4827 -0.0102
  940SOL     OW 3757   2.276   0.148   2.682 -0.3696 -0.4944 -0.1002
  940SOL    HW1 3758   2.272   0.055   2.657  0.7227  2.1861 -0.9667
  940SOL    HW2 3759   2.321   0.158   2.769  1.4041  0.3315  0.2227
  940SOL     MW 3760   2.281   0.137   2.690  0.0086 -0.0318 -0.1719
  941SOL     OW 3761   0.168   2.372   2.077  0.6368 -0.1815  0.0870
  941SOL    HW1 3762   0.206   2.290   2.082  0.7482  0.6115 -0.5686
  941SOL    HW2 3763   0.107   2.373   2.002 -2.3642  1.7850 -1.2576
  941SOL     MW 3764   0.165   2.362   2.068  0.2555  0.1826 -0.1769
  942SOL     OW 3765   2.883   2.216   2.163  0.3436  0.3073  0.3691
  942SOL    HW1 3766   2.806   2.268   2.176 -0.4585  0.4347 -2.3750
  942SOL    HW2 3767   2.862   2.123   2.200  3.2894  0.0017  1.1180
  942SOL     MW 3768   2.870   2.211   2.169  0.6265  0.2838  0.1058
  943SOL     OW 3769   0.242   2.005   2.319  0.4305 -0.4483 -0.6948
  943SOL    HW1 3770   0.191   2.066   2.379 -1.7878 -0.3446  3.7268
  943SOL    HW2 3771   0.334   2.020   2.347  0.9710 -0.9520  1.0305
  943SOL     MW 3772   0.247   2.015   2.331  0.2091 -0.5011  0.1162
  944SOL     OW 3773   2.120   2.667   2.018 -0.1745  0.0538 -0.0152
  944SOL    HW1 3774   2.201   2.632   2.055  0.0211 -1.1950 -1.5717
  944SOL    HW2 3775   2.080   2.718   2.088  0.2862 -0.0762 -2.2724
  944SOL     MW 3776   2.125   2.669   2.032 -0.0879 -0.1281 -0.5184
  945SOL     OW 3777   2.759   2.667   2.923  0.3378  0.7761 -0.8957
  945SOL    HW1 3778   2.692   2.608   2.883 -1.2764 -0.5413  0.7589
  945SOL    HW2 3779   2.828   2.686   2.858 -1.6611 -1.1552 -1.5790
  945SOL     MW 3780   2.759   2.662   2.909 -0.1389  0.3474 -0.7675
  946SOL     OW 3781   2.553   2.725   2.287 -0.2681  0.5650  0.1217
  946SOL    HW1 3782   2.602   2.786   2.230  1.1279  1.0302 -0.6237
  946SOL    HW2 3783   2.503   2.667   2.233 -0.6596 -0.3910 -2.9152
  946SOL     MW 3784   2.553   2.725   2.273 -0.1355  0.5002 -0.3774
  947SOL     OW 3785   2.046   0.047   0.363 -0.3625 -0.5637 -0.6853
  947SOL    HW1 3786   2.083  -0.032   0.331  0.2745  2.5484 -0.1755
  947SOL    HW2 3787   2.111   0.069   0.431  4.2757  0.2326  2.2269
  947SOL     MW 3788   2.060   0.040   0.368  0.3335 -0.0480 -0.2338
  948SOL     OW 3789   1.842   3.100   2.647 -0.5236  0.1679 -0.6588
  948SOL    HW1 3790   1.878   3.010   2.644  0.0289 -0.3533  0.0586
  948SOL    HW2 3791   1.852   3.127   2.558  1.2624 -0.9855 -0.2504
  948SOL     MW 3792   1.848   3.092   2.635 -0.2151 -0.0530 -0.5103
  949SOL     OW 3793   2.541   2.031   2.306  0.0548 -0.9513  0.3672
  949SOL    HW1 3794   2.514   1.947   2.351  0.4460  1.0922  1.1959
  949SOL    HW2 3795   2.498   2.093   2.361  0.9692 -0.5474  1.0485
  949SOL     MW 3796   2.532   2.028   2.319  0.2271 -0.6284  0.5664
  950SOL     OW 3797   2.219   2.630   3.047 -0.8631  0.0818 -0.1735
  950SOL    HW1 3798   2.246   2.552   3.002 -1.3946 -0.2413  0.2009
  950SOL    HW2 3799   2.145   2.662   2.993  0.7310  0.7116 -0.6955
  950SOL     MW 3800   2.213   2.624   3.034 -0.7229  0.1223 -0.1930
  951SOL     OW 3801   2.890   2.051   2.864  0.2040  0.0961  0.2139
  951SOL    HW1 3802   2.910   2.113   2.929 -0.3166 -1.2236 -0.3553
  951SOL    HW2 3803   2.975   2.055   2.810 -1.1295  0.0878 -2.1830
  951SOL     MW 3804   2.904   2.060   2.866 -0.0406 -0.0791 -0.1774
  952SOL     OW 3805   3.092   1.632   2.092  0.0987  0.0531 -0.1763
  952SOL    HW1 3806   3.022   1.681   2.053  0.5198 -1.0984  2.3708
  952SOL    HW2 3807   3.164   1.696   2.114 -0.4434 -0.4754  1.8176
  952SOL     MW 3808   3.092   1.647   2.090  0.0827 -0.1686  0.4229
  953SOL     OW 3809   1.929   1.820   2.827  0.7090 -0.2305  0.6111
  953SOL    HW1 3810   1.840   1.779   2.830  0.4619 -0.9822  0.3338
  953SOL    HW2 3811   1.976   1.744   2.781  2.5626  0.6635  0.1608
  953SOL     MW 3812   1.923   1.805   2.821  0.9209 -0.2118  0.5151
  954SOL     OW 3813   2.416   2.053   2.911  0.0389  0.7522  0.5649
  954SOL    HW1 3814   2.334   2.057   2.863 -0.4020  2.0682 -0.1654
  954SOL    HW2 3815   2.489   2.024   2.843 -1.1296  0.2605 -2.5567
  954SOL     MW 3816   2.415   2.050   2.896 -0.1734  0.8609  0.0566
  955SOL     OW 3817   1.575   1.632   2.600 -0.3420  0.4687  0.0133
  955SOL    HW1 3818   1.549   1.597   2.517  0.8875 -0.0079  1.5983
  955SOL    HW2 3819   1.663   1.662   2.591  3.4937 -1.6356  1.9579
  955SOL     MW 3820   1.583   1.631   2.588  0.3263  0.1281  0.4790
  956SOL     OW 3821   2.619   2.421   2.862  0.0397 -0.2689  0.2350
  956SOL    HW1 3822   2.653   2.405   2.955  0.0643 -0.7380 -2.6233
  956SOL    HW2 3823   2.684   2.370   2.810 -1.2508 -0.7245 -0.8650
  956SOL     MW 3824   2.632   2.412   2.868 -0.1273 -0.3909 -0.2873
  957SOL     OW 3825   2.301   2.816   0.405  0.4412 -0.2720  0.6264
  957SOL    HW1 3826   2.211   2.806   0.380 -0.5540 -0.9772 -1.6160
  957SOL    HW2 3827   2.292   2.779   0.495 -0.2975 -1.8271 -3.5862
  957SOL     MW 3828   2.288   2.810   0.414  0.2124 -0.5702 -0.2253
  958SOL     OW 3829   2.019   2.702   2.850 -0.3388 -0.3256 -0.0130
  958SOL    HW1 3830   2.001   2.618   2.803 -1.6827 -1.9365  0.4691
  958SOL    HW2 3831   1.937   2.732   2.876  0.6884 -0.4523 -0.2535
  958SOL     MW 3832   2.006   2.695   2.847 -0.3806 -0.5549  0.0189
  959SOL     OW 3833   2.407   2.565   0.347  0.2109 -0.2964 -0.5232
  959SOL    HW1 3834   2.485   2.582   0.292  0.1536 -1.5914  1.1109
  959SOL    HW2 3835   2.369   2.651   0.359 -1.0833 -1.7578 -0.6692
  959SOL     MW 3836   2.412   2.578   0.342  0.0326 -0.6601 -0.3269
  960SOL     OW 3837   1.955   2.433   2.305 -0.1622 -0.9395  0.1385
  960SOL    HW1 3838   1.940   2.339   2.301 -0.7109  1.5271  1.5791
  960SOL    HW2 3839   1.914   2.461   2.381  0.8593  1.5157 -2.2669
  960SOL     MW 3840   1.947   2.424   2.315 -0.0998 -0.2901  0.0112
  961SOL     OW 3841   2.241   2.408   2.319 -0.0458 -0.1181  0.4731
  961SOL    HW1 3842   2.147   2.389   2.300  2.8400 -3.7431 -0.4282
  961SOL    HW2 3843   2.248   2.464   2.396 -2.0932 -2.4947 -1.3679
  961SOL     MW 3844   2.229   2.413   2.327  0.0648 -0.9100  0.1113
  962SOL     OW 3845   2.175   2.064   2.786 -0.4903  0.6010 -0.0643
  962SOL    HW1 3846   2.135   2.020   2.866 -0.8692 -0.8646  0.8599
  962SOL    HW2 3847   2.206   1.991   2.725  1.4083 -2.0323 -1.5291
  962SOL     MW 3848   2.174   2.048   2.789 -0.2898  0.0602 -0.1356
  963SOL     OW 3849   1.745   2.536   2.157  0.5227  0.2589 -0.4249
  963SOL    HW1 3850   1.816   2.503   2.211 -2.2783  2.4737 -1.5117
  963SOL    HW2 3851   1.738   2.490   2.074  1.4059  1.5315  0.6587
  963SOL     MW 3852   1.753   2.525   2.153  0.2697  0.7190 -0.4253
  964SOL     OW 3853   1.805   1.989   2.641  0.1531 -0.1648  0.2691
  964SOL    HW1 3854   1.860   2.061   2.602 -1.2284  0.7024 -2.0829
  964SOL    HW2 3855   1.858   1.937   2.706 -1.1362  0.5142  1.0307
  964SOL     MW 3856   1.819   1.992   2.645 -0.1993  0.0392  0.0592
  965SOL     OW 3857   2.181   2.702   0.632  0.0069  0.1396  0.2055
  965SOL    HW1 3858   2.176   2.611   0.597  1.5965 -0.6339 -1.1409
  965SOL    HW2 3859   2.245   2.708   0.707  3.3215  2.6503 -0.9822
  965SOL     MW 3860   2.189   2.691   0.638  0.6539  0.3688 -0.1288
  966SOL     OW 3861   2.718   2.620   2.506 -0.2709  0.2469 -0.5509
  966SOL    HW1 3862   2.672   2.658   2.430 -1.4000 -0.4240 -1.5064
  966SOL    HW2 3863   2.733   2.531   2.472 -0.8287  1.2890 -0.7158
  966SOL     MW 3864   2.714   2.613   2.492 -0.4934  0.2959 -0.6987
  967SOL     OW 3865   2.887   3.021   2.908  0.6512 -0.3483  0.1246
  967SOL    HW1 3866   2.834   2.965   2.965  0.5451  1.7270  0.8445
  967SOL    HW2 3867   2.810   3.066   2.862  0.4768 -2.5512 -3.5126
  967SOL     MW 3868   2.870   3.019   2.909  0.6142 -0.3651 -0.2603
  968SOL     OW 3869   3.014   2.540   3.013  0.2719  0.0599  0.4969
  968SOL    HW1 3870   2.922   2.577   3.001  3.1330 -0.3296  0.3796
  968SOL    HW2 3871   3.022   2.491   2.934 -0.6323  0.2285  2.8044
  968SOL     MW 3872   3.003   2.538   3.001  0.5301  0.0307  0.7859
  969SOL     OW 3873   1.537   2.104   1.713 -0.4776 -0.7450 -0.1871
  969SOL    HW1 3874   1.617   2.049   1.694 -1.7503  2.1125  1.1391
  969SOL    HW2 3875   1.542   2.100   1.809  2.0347 -0.4007  1.1868
  969SOL     MW 3876   1.548   2.096   1.723 -0.3140 -0.3226  0.1691
  970SOL     OW 3877   1.677   1.708   1.852  0.0776  0.2503 -0.0590
  970SOL    HW1 3878   1.714   1.684   1.936 -0.8027 -0.6411  0.5717
  970SOL    HW2 3879   1.585   1.726   1.868  0.0816  0.4272 -0.2267
  970SOL     MW 3880   1.670   1.707   1.865 -0.0380  0.1561  0.0021
  971SOL     OW 3881   1.854   0.112   2.376  0.1795 -0.2266 -0.2082
  971SOL    HW1 3882   1.897   0.056   2.312 -3.1360 -1.5563  2.1793
  971SOL    HW2 3883   1.921   0.184   2.405  1.4252  3.4313 -1.1678
  971SOL     MW 3884   1.868   0.114   2.372 -0.0936  0.0806 -0.0198
  972SOL     OW 3885   0.264   2.812   2.544  0.6559 -0.0233  0.4588
  972SOL    HW1 3886   0.276   2.723   2.516  1.3501 -1.8005 -1.0087
  972SOL    HW2 3887   0.346   2.859   2.529 -0.1303 -0.0463 -1.0728
  972SOL     MW 3888   0.277   2.807   2.538  0.6438 -0.2608  0.0631
  973SOL     OW 3889   2.613   3.092   2.056 -0.2084 -0.2500 -0.3095
  973SOL    HW1 3890   2.603   2.998   2.029  2.3633  2.0911 -1.2839
  973SOL    HW2 3891   2.614   3.144   1.978  1.1677  1.2196  1.4383
  973SOL     MW 3892   2.612   3.086   2.042  0.3125  0.2528 -0.2075
  974SOL     OW 3893   2.072   0.345   2.729  0.2644  0.0215  0.4723
  974SOL    HW1 3894   2.139   0.295   2.685 -0.6022  0.6480 -0.6928
  974SOL    HW2 3895   2.037   0.283   2.797  0.0636  0.9771 -1.1035
  974SOL     MW 3896   2.077   0.330   2.732  0.1236  0.2302  0.1107
  975SOL     OW 3897   2.285   2.600   2.552 -0.5812 -0.0306 -0.0589
  975SOL    HW1 3898   2.368   2.624   2.590 -1.5374 -1.3868 -2.4670
  975SOL    HW2 3899   2.230   2.676   2.536  1.7275  1.0601  0.9183
  975SOL     MW 3900   2.289   2.613   2.555 -0.4028 -0.0656 -0.2477
  976SOL     OW 3901   0.242   0.255   1.733 -0.5404  0.6302  0.2239
  976SOL    HW1 3902   0.290   0.191   1.779 -2.9473  3.2379  0.6381
  976SOL    HW2 3903   0.168   0.202   1.692 -0.5749 -3.0380  0.5874
  976SOL     MW 3904   0.238   0.240   1.733 -0.8625  0.4903  0.3265
  977SOL     OW 3905   1.671   2.764   2.464 -0.0987  0.1320 -0.2975
  977SOL    HW1 3906   1.728   2.682   2.462 -1.1610 -1.5731 -2.5962
  977SOL    HW2 3907   1.737   2.822   2.426 -0.0155  0.2816  0.5356
  977SOL     MW 3908   1.687   2.761   2.459 -0.2278 -0.0732 -0.4909
   3.10000   3.10000   3.10000
