977 TIP4P/2005f water molecules t=   1.65000 step= 1650
 3908
    1SOL     OW    1   0.393   0.795   0.107 -0.1024 -0.2422 -0.0193
    1SOL    HW1    2   0.348   0.726   0.053 -0.1983 -4.0835  0.5215
    1SOL    HW2    3   0.434   0.759   0.182 -0.5557  0.7539  0.3821
    1SOL     MW    4   0.392   0.781   0.110 -0.1749 -0.6176  0.1050
    2SOL     OW    5   0.319   3.002   1.081 -0.2342 -0.2414  0.5280
    2SOL    HW1    6   0.382   3.075   1.063 -0.4303 -0.6201  1.3029
    2SOL    HW2    7   0.233   3.043   1.105  0.4688  2.2293 -1.0410
    2SOL     MW    8   0.316   3.017   1.082 -0.1673  0.0346  0.4233
    3SOL     OW    9   2.645   0.359   0.980  0.6592  0.1828 -0.0738
    3SOL    HW1   10   2.693   0.435   0.954 -2.7562 -1.7302  2.9386
    3SOL    HW2   11   2.635   0.382   1.076  3.6073 -1.8833 -0.2696
    3SOL     MW   12   2.650   0.372   0.989  0.5975 -0.3422  0.2978
    4SOL     OW   13   2.990   1.692   0.536 -0.3152  0.5347  0.2184
    4SOL    HW1   14   2.936   1.760   0.495 -1.1499  1.1351 -1.8918
    4SOL    HW2   15   3.058   1.673   0.468  0.0785  0.4120 -0.1541
    4SOL     MW   16   2.992   1.699   0.522 -0.3734  0.5977 -0.1092
    5SOL     OW   17   1.616   1.416   0.636 -0.1003  0.0537 -0.5395
    5SOL    HW1   18   1.640   1.395   0.722 -2.8087  0.6354  1.3722
    5SOL    HW2   19   1.530   1.450   0.649  2.0760 -0.1259 -0.0185
    5SOL     MW   20   1.608   1.418   0.649 -0.1705  0.1068 -0.2185
    6SOL     OW   21   0.798   1.437   0.610 -0.3058  0.4281  0.8829
    6SOL    HW1   22   0.703   1.422   0.589  0.7702  1.8219  1.0729
    6SOL    HW2   23   0.818   1.356   0.657 -0.0505 -1.0881 -3.3599
    6SOL     MW   24   0.788   1.424   0.613 -0.1302  0.4120  0.3482
    7SOL     OW   25   1.923   1.067   0.018 -0.0854  0.4602 -0.7395
    7SOL    HW1   26   2.010   1.108  -0.000  2.8193  1.5301  0.9448
    7SOL    HW2   27   1.923   1.068   0.120  2.4582 -0.6370  0.6803
    7SOL     MW   28   1.935   1.073   0.029  0.6334  0.4566 -0.3300
    8SOL     OW   29   0.793   1.467   1.094  0.0549 -0.0945 -0.4608
    8SOL    HW1   30   0.873   1.511   1.112 -0.4333 -0.4044  1.3096
    8SOL    HW2   31   0.784   1.383   1.139 -0.2948  0.5587  0.9208
    8SOL     MW   32   0.802   1.462   1.102 -0.0556 -0.0492 -0.0449
    9SOL     OW   33   0.946   0.462   1.352 -0.1800  0.6998 -0.2105
    9SOL    HW1   34   0.895   0.378   1.322  0.3844 -1.2635 -1.5759
    9SOL    HW2   35   1.006   0.421   1.414 -2.3522  1.3598 -0.6113
    9SOL     MW   36   0.947   0.445   1.356 -0.3921  0.5279 -0.4436
   10SOL     OW   37   0.298   0.867   0.473 -0.0104 -0.2124 -0.0316
   10SOL    HW1   38   0.391   0.889   0.449 -0.3422 -0.4775 -1.7984
   10SOL    HW2   39   0.265   0.912   0.553  2.1322  0.8790  1.7508
   10SOL     MW   40   0.306   0.876   0.480  0.2285 -0.1034 -0.0296
   11SOL     OW   41   0.775   1.107   1.478  0.5681 -0.4003 -0.2148
   11SOL    HW1   42   0.842   1.119   1.548 -1.6857  2.3559  2.5580
   11SOL    HW2   43   0.798   1.025   1.432 -2.6928 -1.8330 -1.4273
   11SOL     MW   44   0.787   1.098   1.481 -0.1595 -0.2257 -0.0089
   12SOL     OW   45   3.102   1.073   0.868  0.4846 -0.3150  0.1457
   12SOL    HW1   46   3.095   1.142   0.934  1.0911 -1.2761  1.0856
   12SOL    HW2   47   3.032   1.077   0.807  3.0214 -0.2278  1.9394
   12SOL     MW   48   3.092   1.082   0.869  0.8993 -0.4303  0.5064
   13SOL     OW   49   1.813   1.414   1.298 -0.3783  0.1793  0.7494
   13SOL    HW1   50   1.839   1.345   1.242  0.3608  0.9357  3.7447
   13SOL    HW2   51   1.851   1.490   1.261  0.7276 -1.8812  3.5327
   13SOL     MW   52   1.822   1.415   1.286 -0.1348  0.0072  1.5118
   14SOL     OW   53   0.537   0.343   1.757  0.3101 -0.1411 -0.2496
   14SOL    HW1   54   0.483   0.267   1.754  0.7031 -1.4326 -0.9856
   14SOL    HW2   55   0.608   0.332   1.696  0.8202 -2.8278 -1.6382
   14SOL     MW   56   0.540   0.332   1.749  0.4292 -0.6659 -0.5299
   15SOL     OW   57   2.019   0.415   1.007  0.1553 -0.1087 -0.2643
   15SOL    HW1   58   1.988   0.499   1.030 -0.0430 -1.0286  0.7172
   15SOL    HW2   59   2.059   0.447   0.922  0.1090  1.3881 -0.3818
   15SOL     MW   60   2.020   0.430   0.998  0.1230 -0.0326 -0.1503
   16SOL     OW   61   0.300   1.827   0.294 -0.8513  0.2344  0.0082
   16SOL    HW1   62   0.389   1.794   0.323  0.1925 -1.3709 -0.6339
   16SOL    HW2   63   0.313   1.922   0.301  1.5754 -1.2597  2.6223
   16SOL     MW   64   0.314   1.836   0.298 -0.3934 -0.1745  0.2684
   17SOL     OW   65   1.111   0.878   1.431 -0.0573  0.4658 -0.0407
   17SOL    HW1   66   1.145   0.854   1.521  0.1408  0.7060  1.0917
   17SOL    HW2   67   1.018   0.877   1.437  2.0333 -0.4790 -0.7517
   17SOL     MW   68   1.103   0.874   1.443  0.2447  0.3728  0.0149
   18SOL     OW   69   0.071   1.655   0.330 -0.0922 -0.0849 -0.4468
   18SOL    HW1   70   0.126   1.735   0.326  0.1064  1.9621 -1.4589
   18SOL    HW2   71   0.048   1.627   0.240 -0.0998 -1.3555 -4.8011
   18SOL     MW   72   0.075   1.662   0.317 -0.0670  0.0175 -1.1548
   19SOL     OW   73   0.087   1.325   0.983  0.3466 -0.1347 -0.4009
   19SOL    HW1   74   0.138   1.340   0.904  2.1311  1.0891  3.9803
   19SOL    HW2   75   0.002   1.361   0.973 -0.0558  0.8044  3.0677
   19SOL     MW   76   0.083   1.332   0.971  0.5289  0.1507  0.6348
   20SOL     OW   77   0.441   2.122   1.266 -0.3104 -0.0595 -0.2925
   20SOL    HW1   78   0.392   2.048   1.220 -1.2380  0.2769  0.6873
   20SOL    HW2   79   0.405   2.137   1.358 -0.2045  0.5789 -0.4343
   20SOL     MW   80   0.430   2.114   1.272 -0.4188  0.0691 -0.1820
   21SOL     OW   81   0.560   0.864   0.416 -0.1026  0.2386 -0.4235
   21SOL    HW1   82   0.607   0.806   0.483 -0.4819 -0.2275 -2.5519
   21SOL    HW2   83   0.619   0.898   0.352 -0.1518  2.4085  3.0814
   21SOL     MW   84   0.574   0.861   0.416 -0.1592  0.4634 -0.2419
   22SOL     OW   85   1.530   0.706   1.033  0.3360 -0.2421  0.1221
   22SOL    HW1   86   1.535   0.669   0.947 -1.6865 -1.7743  0.1840
   22SOL    HW2   87   1.445   0.747   1.031 -1.0437  0.4035  1.8706
   22SOL     MW   88   1.520   0.707   1.022 -0.1129 -0.3591  0.3610
   23SOL     OW   89   3.073   0.818   0.730 -0.4667  0.3328  0.0300
   23SOL    HW1   90   3.116   0.742   0.778 -2.3469 -0.6441 -1.3537
   23SOL    HW2   91   3.131   0.895   0.745 -1.4880  1.3115 -1.1400
   23SOL     MW   92   3.087   0.818   0.739 -0.8495  0.3330 -0.3069
   24SOL     OW   93   2.073   2.211   0.054 -0.3135 -0.1473 -0.2823
   24SOL    HW1   94   2.063   2.214   0.150 -2.1417 -2.2499 -0.6824
   24SOL    HW2   95   2.073   2.119   0.030 -1.7391  0.1643  3.0379
   24SOL     MW   96   2.072   2.199   0.063 -0.7428 -0.3836  0.1030
   25SOL     OW   97   0.183   1.414   0.430  0.4111  0.6959 -0.1967
   25SOL    HW1   98   0.141   1.495   0.405  2.1276 -2.4268  1.6275
   25SOL    HW2   99   0.257   1.398   0.366  0.5265  0.8091 -0.9952
   25SOL     MW  100   0.187   1.423   0.418  0.6528  0.2988 -0.0613
   26SOL     OW  101   1.970   1.030   0.284  0.0048  0.1960  0.3657
   26SOL    HW1  102   1.957   1.066   0.375 -0.5190  4.3791 -1.4709
   26SOL    HW2  103   2.056   1.070   0.259 -0.9960  1.8563 -0.6013
   26SOL     MW  104   1.979   1.040   0.293 -0.1963  0.9670 -0.0042
   27SOL     OW  105   1.860   1.382   0.169  0.0709  0.1250  0.1885
   27SOL    HW1  106   1.834   1.473   0.191  0.0942  0.0488  0.6611
   27SOL    HW2  107   1.921   1.372   0.246 -0.1294 -1.3446  1.6830
   27SOL     MW  108   1.865   1.393   0.182  0.0475 -0.0790  0.4480
   28SOL     OW  109   0.420   0.941   1.994  0.0794 -0.0767  0.2946
   28SOL    HW1  110   0.458   0.943   2.078 -0.9351  2.2780 -0.0311
   28SOL    HW2  111   0.326   0.941   2.016 -3.9605  0.4495 -0.5113
   28SOL     MW  112   0.412   0.941   2.008 -0.5875  0.3034  0.1453
   29SOL     OW  113   0.213   1.398   0.733 -0.4162  0.5484  0.2451
   29SOL    HW1  114   0.236   1.494   0.731  1.1335 -1.9039 -0.1847
   29SOL    HW2  115   0.212   1.360   0.644 -1.4443  1.3407  0.1097
   29SOL     MW  116   0.216   1.405   0.721 -0.3474  0.3294  0.1706
   30SOL     OW  117   0.737   1.219   1.213 -0.9023  0.8857 -0.4046
   30SOL    HW1  118   0.648   1.215   1.248  0.6650 -1.5660  0.8032
   30SOL    HW2  119   0.786   1.171   1.284  0.4001 -0.2071  1.5726
   30SOL     MW  120   0.732   1.212   1.227 -0.5237  0.4180  0.0156
   31SOL     OW  121   0.506   0.288   0.199  0.4941 -0.7219  0.2535
   31SOL    HW1  122   0.544   0.235   0.269  1.8243  0.5926  2.0973
   31SOL    HW2  123   0.520   0.241   0.111  0.6932  0.7175  2.2796
   31SOL     MW  124   0.513   0.275   0.196  0.6959 -0.3585  0.7641
   32SOL     OW  125   2.724   0.954   1.088 -0.3215 -0.4804 -0.2623
   32SOL    HW1  126   2.644   0.908   1.115  3.3068  1.4605 -0.1046
   32SOL    HW2  127   2.798   0.906   1.119 -2.0996  0.8115 -1.4158
   32SOL     MW  128   2.723   0.942   1.096 -0.0774 -0.0539 -0.3937
   33SOL     OW  129   1.647   1.241   0.386 -0.3927 -0.1689  0.4865
   33SOL    HW1  130   1.742   1.218   0.392  0.4301 -1.4251  0.1155
   33SOL    HW2  131   1.624   1.295   0.458  1.2487  1.2597 -1.8784
   33SOL     MW  132   1.656   1.245   0.396 -0.0676 -0.1462  0.1256
   34SOL     OW  133   1.158   1.961   1.129  0.4135  0.5162 -0.0822
   34SOL    HW1  134   1.061   1.975   1.148  0.0951 -1.4901 -2.6522
   34SOL    HW2  135   1.206   1.981   1.217 -2.7617  0.5898  0.5749
   34SOL     MW  136   1.152   1.966   1.143 -0.0474  0.2612 -0.3346
   35SOL     OW  137   0.324   0.148   1.798  0.6373 -0.0879 -0.4013
   35SOL    HW1  138   0.364   0.096   1.871  1.0833  0.9867  1.3161
   35SOL    HW2  139   0.312   0.093   1.723 -0.4463  1.3285 -0.7731
   35SOL     MW  140   0.327   0.134   1.798  0.5531  0.2408 -0.2237
   36SOL     OW  141   1.926   1.990   0.600 -0.0628 -0.1917  0.3233
   36SOL    HW1  142   1.878   1.972   0.516 -0.2150  2.4189 -1.6172
   36SOL    HW2  143   1.962   1.911   0.633  0.2959  0.9953 -0.1837
   36SOL     MW  144   1.925   1.977   0.593 -0.0356  0.3094  0.0004
   37SOL     OW  145   1.816   2.065   0.998  0.3762  0.4875  0.1595
   37SOL    HW1  146   1.755   2.048   0.927 -1.6381  0.7277  3.0509
   37SOL    HW2  147   1.757   2.097   1.065  0.6136  0.7989  1.3660
   37SOL     MW  148   1.800   2.067   0.997  0.1417  0.5603  0.7002
   38SOL     OW  149   2.832   0.960   0.105 -0.7432  0.3270 -0.8705
   38SOL    HW1  150   2.877   0.958   0.191 -1.0979  0.2977 -1.5301
   38SOL    HW2  151   2.899   0.951   0.037  0.9893 -1.2166 -2.3551
   38SOL     MW  152   2.847   0.959   0.108 -0.5614  0.1194 -1.1534
   39SOL     OW  153   1.489   0.658   0.769 -0.0707  0.2261  0.4394
   39SOL    HW1  154   1.450   0.576   0.749  1.0608  0.0814 -0.5196
   39SOL    HW2  155   1.425   0.725   0.758  2.8744  1.0964  1.0170
   39SOL     MW  156   1.475   0.656   0.765  0.4672  0.3218  0.3891
   40SOL     OW  157   1.271   1.869   0.249 -0.1576  0.6038 -0.3761
   40SOL    HW1  158   1.331   1.811   0.297  2.4717  2.3453  0.9723
   40SOL    HW2  159   1.254   1.940   0.314 -0.6141  0.8275 -0.0808
   40SOL     MW  160   1.277   1.871   0.264  0.1291  0.8631 -0.1592
   41SOL     OW  161   0.527   0.571   1.533  0.0248 -0.6330 -0.7379
   41SOL    HW1  162   0.605   0.604   1.495 -2.4222  1.0146 -2.2430
   41SOL    HW2  163   0.445   0.607   1.487 -1.1527  2.8918 -1.3662
   41SOL     MW  164   0.526   0.580   1.522 -0.4534  0.0494 -1.0194
   42SOL     OW  165   1.237   2.978   1.980 -0.2405 -0.5241  0.6283
   42SOL    HW1  166   1.194   3.055   2.020 -0.4566 -1.9089 -3.3514
   42SOL    HW2  167   1.265   2.913   2.041 -1.3623 -0.2353  0.2613
   42SOL     MW  168   1.235   2.980   1.994 -0.4170 -0.6687  0.0548
   43SOL     OW  169   1.447   0.093   1.728 -0.2928  0.0903 -0.5770
   43SOL    HW1  170   1.519   0.068   1.665 -1.9604  0.6447 -2.1198
   43SOL    HW2  171   1.371   0.035   1.702  1.1816 -4.1452 -0.8336
   43SOL     MW  172   1.447   0.082   1.716 -0.3183 -0.3954 -0.8144
   44SOL     OW  173   1.269   0.798   1.034 -0.2146  0.1939 -0.5394
   44SOL    HW1  174   1.254   0.892   1.027 -0.4255 -0.7731  1.5346
   44SOL    HW2  175   1.219   0.764   1.110  0.8983 -1.1341 -0.4724
   44SOL     MW  176   1.260   0.806   1.043 -0.0956 -0.1089 -0.2569
   45SOL     OW  177   1.294   0.841   0.742  0.0083  0.0442 -0.2162
   45SOL    HW1  178   1.266   0.828   0.833  1.0872  1.3227 -0.7676
   45SOL    HW2  179   1.242   0.803   0.676  1.4595  0.6526 -0.4591
   45SOL     MW  180   1.283   0.834   0.745  0.3421  0.2932 -0.3210
   46SOL     OW  181   0.444   1.121   0.659 -0.4256  0.6065  0.0534
   46SOL    HW1  182   0.473   1.151   0.571  0.1291  0.7983 -1.0626
   46SOL    HW2  183   0.483   1.185   0.722  2.7178 -2.0206 -2.6120
   46SOL     MW  184   0.453   1.133   0.656  0.0623  0.2852 -0.4455
   47SOL     OW  185   0.090   2.055   1.885 -0.0991 -0.6372  0.1460
   47SOL    HW1  186   0.060   1.964   1.864 -1.7472  0.5716  1.7965
   47SOL    HW2  187   0.083   2.068   1.975 -1.6206  2.0158  0.9379
   47SOL     MW  188   0.085   2.045   1.894 -0.5173 -0.1277  0.4683
   48SOL     OW  189   1.206   0.507   1.022  0.1668 -0.3095  0.1616
   48SOL    HW1  190   1.177   0.445   0.956  1.0250  2.8344 -0.3827
   48SOL    HW2  191   1.215   0.591   0.979 -0.7447 -1.2446 -1.5268
   48SOL     MW  192   1.203   0.510   1.008  0.1597 -0.0181 -0.1330
   49SOL     OW  193   1.679   0.679   1.557  0.2502 -0.0110  0.4598
   49SOL    HW1  194   1.737   0.638   1.624  0.8370 -0.9284  0.3953
   49SOL    HW2  195   1.724   0.655   1.474  0.3330  2.4722 -1.0724
   49SOL     MW  196   1.693   0.671   1.555  0.3386  0.1956  0.2492
   50SOL     OW  197   1.306   1.251   0.615  0.4243 -1.0014  0.7811
   50SOL    HW1  198   1.236   1.257   0.688  2.3207 -2.6199 -4.5438
   50SOL    HW2  199   1.374   1.185   0.648  1.1918 -0.6505  0.6862
   50SOL     MW  200   1.306   1.243   0.629  0.7758 -1.1686  0.0660
   51SOL     OW  201   0.311   2.874   0.828 -0.2098 -0.7520  0.4738
   51SOL    HW1  202   0.395   2.832   0.833 -2.1560  0.5397  1.4788
   51SOL    HW2  203   0.301   2.915   0.912  3.5157 -0.6946 -3.3236
   51SOL     MW  204   0.320   2.874   0.839  0.0250 -0.5740  0.1054
   52SOL     OW  205   0.796   1.808   0.468 -0.2201  0.2412 -0.0377
   52SOL    HW1  206   0.784   1.904   0.484 -1.1018  2.0032 -1.6188
   52SOL    HW2  207   0.831   1.793   0.378 -0.5993 -1.6701 -0.1160
   52SOL     MW  208   0.799   1.819   0.458 -0.3865  0.2215 -0.2566
   53SOL     OW  209   0.489   2.164   0.549  0.1071  0.8441  0.9435
   53SOL    HW1  210   0.417   2.145   0.489 -2.3415 -1.2681  2.4637
   53SOL    HW2  211   0.483   2.256   0.559  0.2188 -0.5652 -1.4684
   53SOL     MW  212   0.479   2.173   0.543 -0.2012  0.3795  0.8259
   54SOL     OW  213   2.035   0.985   0.728  0.5259  0.2057  0.4362
   54SOL    HW1  214   2.112   0.972   0.674 -2.1955 -0.3015 -1.6439
   54SOL    HW2  215   2.020   0.893   0.761  1.5848  0.8528  0.8861
   54SOL     MW  216   2.043   0.971   0.725  0.3066  0.2241  0.2211
   55SOL     OW  217   0.447   1.521   1.683 -0.1609 -0.2388 -0.0070
   55SOL    HW1  218   0.399   1.557   1.611  1.1941  0.9404  1.3842
   55SOL    HW2  219   0.527   1.481   1.639  1.9332  1.5912  0.9539
   55SOL     MW  220   0.451   1.521   1.668  0.2942  0.1583  0.3034
   56SOL     OW  221   0.672   0.915   0.152  0.1986  0.4330  0.1766
   56SOL    HW1  222   0.680   1.003   0.113 -1.1004 -0.8931 -1.2776
   56SOL    HW2  223   0.582   0.882   0.144 -0.1522 -1.6488  0.3927
   56SOL     MW  224   0.661   0.922   0.145 -0.0191 -0.0166  0.0133
   57SOL     OW  225   1.108   1.272   1.149 -0.2918 -0.3854  0.1531
   57SOL    HW1  226   1.191   1.321   1.157 -1.6991  0.5152  1.1612
   57SOL    HW2  227   1.106   1.224   1.231  0.3293  1.9116 -0.4109
   57SOL     MW  228   1.119   1.272   1.161 -0.3955  0.0365  0.2117
   58SOL     OW  229   0.428   1.287   1.287  0.5653  0.1292  0.0708
   58SOL    HW1  230   0.408   1.380   1.286  1.3003  0.4792  0.5139
   58SOL    HW2  231   0.445   1.276   1.379 -2.9059  0.7678 -2.4554
   58SOL     MW  232   0.428   1.298   1.299  0.2043  0.2597 -0.2041
   59SOL     OW  233   1.426   1.688   0.386  0.4792 -0.4631 -0.3135
   59SOL    HW1  234   1.492   1.696   0.452 -2.3852 -0.0247  0.9154
   59SOL    HW2  235   1.344   1.667   0.426 -1.3758  1.3121  1.6531
   59SOL     MW  236   1.424   1.686   0.400 -0.1435 -0.1710  0.1081
   60SOL     OW  237   3.090   0.168   1.642  0.4939  0.2195 -0.5824
   60SOL    HW1  238   3.001   0.205   1.651 -0.0147 -2.6420 -3.5020
   60SOL    HW2  239   3.104   0.123   1.723 -2.7724 -2.4083  1.0842
   60SOL     MW  240   3.080   0.167   1.654 -0.0041 -0.5048 -0.7478
   61SOL     OW  241   1.952   1.367   2.978  0.0287 -0.3979 -0.2465
   61SOL    HW1  242   1.930   1.373   3.069  0.4999 -1.1974 -1.4055
   61SOL    HW2  243   2.012   1.293   2.974  1.7416 -0.1924 -0.4273
   61SOL     MW  244   1.957   1.358   2.990  0.3169 -0.4763 -0.4233
   62SOL     OW  245   0.587   1.722   0.649 -0.3606  0.4273  0.5986
   62SOL    HW1  246   0.674   1.738   0.610  0.6220  0.8664  1.2825
   62SOL    HW2  247   0.577   1.627   0.653  0.1027 -0.5315  3.0801
   62SOL     MW  248   0.597   1.711   0.644 -0.1698  0.3587  1.0163
   63SOL     OW  249   1.756   0.719   0.634 -0.0593  0.0992 -0.3776
   63SOL    HW1  250   1.718   0.797   0.594  2.8437  2.2530 -0.3143
   63SOL    HW2  251   1.679   0.682   0.685  1.1533  0.8032  0.0911
   63SOL     MW  252   1.741   0.724   0.635  0.4837  0.4763 -0.3074
   64SOL     OW  253   0.264   1.683   0.727  0.6221  0.0516 -0.4646
   64SOL    HW1  254   0.323   1.759   0.718  2.7146  0.9270  0.4338
   64SOL    HW2  255   0.181   1.730   0.750 -4.3587 -1.1124  1.4373
   64SOL     MW  256   0.261   1.699   0.729  0.2410  0.0135 -0.0951
   65SOL     OW  257   1.476   2.308   0.390  0.4154 -0.4174  0.2122
   65SOL    HW1  258   1.567   2.329   0.401 -0.9763 -2.2992 -1.5652
   65SOL    HW2  259   1.415   2.353   0.453 -1.7254 -1.4472  0.6232
   65SOL     MW  260   1.480   2.316   0.400 -0.0507 -0.8016  0.0319
   66SOL     OW  261   0.384   0.581   0.479  0.5918  0.1276  0.1626
   66SOL    HW1  262   0.421   0.566   0.389  1.0219 -0.1768 -2.6333
   66SOL    HW2  263   0.360   0.674   0.476  1.1095 -0.5990  3.0602
   66SOL     MW  264   0.386   0.591   0.467  0.7169 -0.0084  0.1760
   67SOL     OW  265   1.444   0.036   1.980 -0.1870  0.0509  0.1330
   67SOL    HW1  266   1.467   0.062   1.887  1.9365 -1.4908  1.2597
   67SOL    HW2  267   1.363  -0.017   1.973 -3.8961  1.3306 -0.4907
   67SOL     MW  268   1.437   0.032   1.967 -0.3962  0.0163  0.1994
   68SOL     OW  269   0.761   0.053   2.947 -0.1684  0.6073  0.0938
   68SOL    HW1  270   0.751   0.098   2.860 -2.5893 -1.0633  0.2185
   68SOL    HW2  271   0.833   0.089   2.992 -2.8679  0.1968 -1.5833
   68SOL     MW  272   0.769   0.064   2.941 -0.8440  0.3327 -0.1110
   69SOL     OW  273   1.051   0.211   1.922  0.5835  0.1702 -0.2607
   69SOL    HW1  274   1.133   0.225   1.967  2.2057  0.4815 -0.9184
   69SOL    HW2  275   1.017   0.127   1.962 -1.2307  0.6178  0.4438
   69SOL     MW  276   1.057   0.202   1.933  0.5581  0.2703 -0.2545
   70SOL     OW  277   0.501   1.748   1.081 -0.0913 -0.1468  0.4246
   70SOL    HW1  278   0.594   1.776   1.085 -0.7182  1.2398  1.6758
   70SOL    HW2  279   0.510   1.694   1.002  1.8176 -0.0561 -1.3245
   70SOL     MW  280   0.514   1.745   1.071  0.0778  0.0481  0.3589
   71SOL     OW  281   1.534   0.562   1.255  0.1707  0.2081 -0.3798
   71SOL    HW1  282   1.478   0.626   1.309  0.0378  2.1613  1.4981
   71SOL    HW2  283   1.524   0.598   1.167  1.8610 -1.7760 -0.4944
   71SOL     MW  284   1.525   0.575   1.251  0.3762  0.2040 -0.1472
   72SOL     OW  285   0.795   1.829   1.012  0.6553  0.3939  0.3105
   72SOL    HW1  286   0.778   1.891   0.936 -0.2879  1.9005  0.1935
   72SOL    HW2  287   0.829   1.748   0.981  1.3300  2.0834 -0.2579
   72SOL     MW  288   0.797   1.826   0.998  0.6199  0.8156  0.2201
   73SOL     OW  289   1.138   0.670   1.271 -0.5470 -0.3135 -0.5342
   73SOL    HW1  290   1.060   0.604   1.267  0.7958  0.4432 -2.2568
   73SOL    HW2  291   1.114   0.748   1.323 -3.1981 -0.4130 -2.0085
   73SOL     MW  292   1.125   0.672   1.278 -0.7196 -0.2268 -0.9560
   74SOL     OW  293   2.799   0.099   0.976 -0.4415 -0.0554 -0.2805
   74SOL    HW1  294   2.867   0.058   0.927 -1.8929 -1.4986  0.3453
   74SOL    HW2  295   2.806   0.191   0.948 -0.8201 -0.6611  0.7280
   74SOL     MW  296   2.809   0.105   0.966 -0.6830 -0.3257 -0.0649
   75SOL     OW  297   1.546   1.344   0.148 -0.7863  0.5197 -0.4408
   75SOL    HW1  298   1.600   1.294   0.088 -0.5709 -0.7556  1.2790
   75SOL    HW2  299   1.571   1.305   0.234 -0.4263 -1.6975  2.3411
   75SOL     MW  300   1.556   1.333   0.151 -0.7103  0.0589  0.1531
   76SOL     OW  301   3.010   0.664   0.496  0.5896  0.3118  0.6140
   76SOL    HW1  302   3.042   0.708   0.580  1.5628  3.3876  0.1712
   76SOL    HW2  303   3.092   0.612   0.477 -0.2151  1.6999  1.7666
   76SOL     MW  304   3.025   0.663   0.505  0.6118  0.9008  0.7076
   77SOL     OW  305   0.843   0.625   0.436 -0.3642  0.0028  0.1718
   77SOL    HW1  306   0.856   0.637   0.341 -0.5588  1.0091 -0.0528
   77SOL    HW2  307   0.836   0.527   0.451 -0.5524 -0.1932  3.2180
   77SOL     MW  308   0.844   0.614   0.426 -0.4147  0.1097  0.5441
   78SOL     OW  309   0.759   0.889   1.103  0.3184  0.5117 -0.7031
   78SOL    HW1  310   0.751   0.964   1.046  1.7406  0.4199  2.5765
   78SOL    HW2  311   0.670   0.857   1.132 -1.6048 -0.7917 -0.5181
   78SOL     MW  312   0.746   0.895   1.100  0.2523  0.3276 -0.2460
   79SOL     OW  313   1.865   1.517   0.569 -0.4224 -0.5140 -0.3359
   79SOL    HW1  314   1.776   1.488   0.591 -2.6635 -0.1504 -0.0104
   79SOL    HW2  315   1.893   1.549   0.654 -1.2826  0.0336  2.4914
   79SOL     MW  316   1.857   1.517   0.583 -0.8316 -0.3937  0.0801
   80SOL     OW  317   0.115   1.013   0.315  0.6373 -0.1593 -0.1387
   80SOL    HW1  318   0.047   0.967   0.271  1.7132  3.9422  0.7698
   80SOL    HW2  319   0.151   0.942   0.369 -1.4132 -0.6042 -0.2051
   80SOL     MW  320   0.111   0.998   0.316  0.5087  0.3232 -0.0276
   81SOL     OW  321   1.784   1.872   0.351 -0.2314 -0.2865  0.9257
   81SOL    HW1  322   1.779   1.782   0.330 -0.1418  0.1412 -0.1915
   81SOL    HW2  323   1.747   1.917   0.266  2.6297 -0.5885 -0.3979
   81SOL     MW  324   1.778   1.866   0.337  0.1579 -0.2699  0.6037
   82SOL     OW  325   0.946   1.047   0.523  0.7191 -0.0548  0.4119
   82SOL    HW1  326   0.896   1.077   0.449 -0.5417 -3.0996  0.7725
   82SOL    HW2  327   0.883   0.986   0.560  1.4476  2.0920  2.6042
   82SOL     MW  328   0.931   1.043   0.518  0.6488 -0.1733  0.7488
   83SOL     OW  329   0.035   0.765   1.557  0.6941 -0.7511 -0.3082
   83SOL    HW1  330   0.037   0.827   1.480  1.7021 -1.4336  3.9045
   83SOL    HW2  331   0.099   0.697   1.547 -1.4786 -2.3358  2.0044
   83SOL     MW  332   0.044   0.764   1.546  0.5404 -1.0502  0.5527
   84SOL     OW  333   0.044   0.186   0.925  0.0543 -0.1655  0.3568
   84SOL    HW1  334   0.022   0.274   0.956 -0.5908 -0.8209  1.4090
   84SOL    HW2  335   0.057   0.120   0.995 -0.9451 -1.5134 -0.6668
   84SOL     MW  336   0.043   0.189   0.938 -0.1627 -0.4298  0.3606
   85SOL     OW  337   0.357   0.485   0.746 -0.9053  0.2635  0.4898
   85SOL    HW1  338   0.412   0.490   0.668 -1.5434 -0.4026  0.8489
   85SOL    HW2  339   0.338   0.391   0.756  0.1486  1.6126 -1.0158
   85SOL     MW  340   0.362   0.473   0.737 -0.8505  0.3536  0.3385
   86SOL     OW  341   1.229   0.275   1.173 -0.4379  0.2519 -0.6612
   86SOL    HW1  342   1.202   0.364   1.149  1.1544 -0.7094 -0.8693
   86SOL    HW2  343   1.326   0.278   1.173  0.5173 -0.7151  2.8761
   86SOL     MW  344   1.238   0.287   1.170 -0.1018 -0.0025 -0.2219
   87SOL     OW  345   1.046   1.541   1.197 -0.4015  0.4515 -0.1185
   87SOL    HW1  346   1.113   1.592   1.156  0.5923 -1.7322 -1.8887
   87SOL    HW2  347   1.061   1.453   1.165  1.7592 -0.5350 -0.7797
   87SOL     MW  348   1.057   1.536   1.187  0.0147  0.0332 -0.4393
   88SOL     OW  349   1.228   1.078   1.008 -0.5498  0.0374 -0.2857
   88SOL    HW1  350   1.322   1.104   1.026  0.2039  2.8155 -1.9730
   88SOL    HW2  351   1.178   1.137   1.066 -0.4779  2.1804 -0.2890
   88SOL     MW  352   1.234   1.089   1.018 -0.4408  0.6867 -0.5088
   89SOL     OW  353   1.771   0.698   0.249  0.4525 -0.0559 -0.3626
   89SOL    HW1  354   1.750   0.633   0.312  3.0426  0.0547 -0.9479
   89SOL    HW2  355   1.861   0.732   0.262  0.4366  0.0418 -2.2167
   89SOL     MW  356   1.780   0.694   0.259  0.7921 -0.0284 -0.6844
   90SOL     OW  357   0.814   1.235   2.887 -0.6638  0.1903 -0.7228
   90SOL    HW1  358   0.866   1.163   2.922 -0.6577 -0.1061  2.3938
   90SOL    HW2  359   0.804   1.303   2.952 -0.9614 -0.5643 -2.8921
   90SOL     MW  360   0.820   1.235   2.901 -0.7023  0.0516 -0.5978
   91SOL     OW  361   2.194   0.614   0.461  0.5313 -0.5173 -0.0618
   91SOL    HW1  362   2.267   0.651   0.418 -0.4546  0.2723  1.9111
   91SOL    HW2  363   2.187   0.526   0.425 -1.4367  1.7674 -0.8810
   91SOL     MW  364   2.202   0.607   0.451  0.1416 -0.1117  0.0904
   92SOL     OW  365   1.631   0.956   0.547 -0.2322 -0.1767 -0.1365
   92SOL    HW1  366   1.580   0.998   0.613  0.5083 -0.5237 -0.2154
   92SOL    HW2  367   1.598   1.013   0.475  2.2733  2.4942 -0.8961
   92SOL     MW  368   1.620   0.969   0.546  0.1961  0.1299 -0.2472
   93SOL     OW  369   1.051   0.283   0.346 -0.1595  0.4130  0.0061
   93SOL    HW1  370   0.954   0.278   0.350  0.3327  0.4504  2.2943
   93SOL    HW2  371   1.061   0.323   0.255 -1.3829  0.1490 -1.6847
   93SOL     MW  372   1.039   0.288   0.334 -0.2560  0.3831  0.0849
   94SOL     OW  373   1.861   1.388   1.582  0.2232 -0.0844 -0.6362
   94SOL    HW1  374   1.885   1.393   1.488  1.3282  1.3572  1.7399
   94SOL    HW2  375   1.841   1.293   1.598 -1.4996 -0.8716  0.3548
   94SOL     MW  376   1.862   1.376   1.572  0.1417  0.0019 -0.1920
   95SOL     OW  377   0.586   1.552   0.905  0.0610 -0.3025  0.2446
   95SOL    HW1  378   0.647   1.503   0.962 -3.1755 -1.4968 -4.6416
   95SOL    HW2  379   0.525   1.485   0.874 -0.2262  1.5666  0.4625
   95SOL     MW  380   0.586   1.537   0.909 -0.4039 -0.2134 -0.3714
   96SOL     OW  381   1.335   1.847   1.652  0.5308 -0.0064  0.3218
   96SOL    HW1  382   1.258   1.856   1.708  1.1842  1.8258  3.6778
   96SOL    HW2  383   1.337   1.750   1.640  1.8180 -0.4957  1.0395
   96SOL     MW  384   1.325   1.835   1.658  0.7869  0.1708  0.8593
   97SOL     OW  385   1.082   1.535   0.857  0.0587  0.6808 -0.7064
   97SOL    HW1  386   1.126   1.598   0.921  2.7297  0.3760 -0.2183
   97SOL    HW2  387   0.988   1.540   0.873  1.1526 -1.6056  0.5839
   97SOL     MW  388   1.076   1.544   0.868  0.5555  0.3389 -0.4717
   98SOL     OW  389   1.339   1.402   1.177  0.1403  0.2944 -0.1988
   98SOL    HW1  390   1.382   1.437   1.258  0.3583  2.0941  1.5601
   98SOL    HW2  391   1.388   1.443   1.102  0.6842 -0.3486 -1.8411
   98SOL     MW  392   1.351   1.412   1.178  0.2408  0.4470 -0.1835
   99SOL     OW  393   1.492   0.298   1.318  0.1848  0.3128  0.5008
   99SOL    HW1  394   1.487   0.398   1.337  1.9687 -2.0211  1.6494
   99SOL    HW2  395   1.448   0.258   1.390 -2.4762 -0.5440  1.4867
   99SOL     MW  396   1.485   0.306   1.330  0.0691 -0.1082  0.7824
  100SOL     OW  397   1.073   1.149   1.375  0.1581 -0.5830  0.2753
  100SOL    HW1  398   1.094   1.205   1.450 -6.0977  0.5809  0.1371
  100SOL    HW2  399   1.103   1.060   1.405 -0.1483 -1.5906  1.2474
  100SOL     MW  400   1.080   1.145   1.389 -0.7077 -0.5624  0.3853
  101SOL     OW  401   0.552   1.210   0.418  0.2632 -0.0473 -0.1507
  101SOL    HW1  402   0.483   1.183   0.346 -2.8409 -0.5018  1.3663
  101SOL    HW2  403   0.640   1.178   0.389 -0.5111  0.5962  1.4515
  101SOL     MW  404   0.554   1.202   0.405 -0.2485 -0.0223  0.2609
  102SOL     OW  405   2.930   0.644   1.092  0.8834  0.0820  0.0848
  102SOL    HW1  406   2.972   0.725   1.110  0.7924  0.3268  0.0408
  102SOL    HW2  407   2.873   0.619   1.167 -2.3712  0.0751  1.5617
  102SOL     MW  408   2.928   0.651   1.104  0.4420  0.1134  0.2739
  103SOL     OW  409   1.858   0.258   1.808 -0.0887  0.4170 -0.4990
  103SOL    HW1  410   1.873   0.162   1.798 -1.3784  2.5777  0.8977
  103SOL    HW2  411   1.856   0.268   1.907 -1.3381  1.6826 -0.6166
  103SOL     MW  412   1.860   0.247   1.820 -0.4237  0.8691 -0.3303
  104SOL     OW  413   0.075   1.516   1.656 -0.8645  0.5230 -0.1757
  104SOL    HW1  414   0.129   1.434   1.694 -0.1562 -2.0697 -0.0603
  104SOL    HW2  415  -0.018   1.500   1.662  2.1181  1.1868  1.7099
  104SOL     MW  416   0.069   1.503   1.662 -0.3775  0.2685  0.0883
  105SOL     OW  417   3.082   1.233   0.403  0.4007 -0.2822 -0.1561
  105SOL    HW1  418   3.110   1.146   0.376  2.7167  1.4441 -1.9589
  105SOL    HW2  419   3.166   1.276   0.418 -1.9192 -1.6523  0.6148
  105SOL     MW  420   3.097   1.227   0.401  0.4002 -0.2352 -0.2923
  106SOL     OW  421   0.793   0.340   0.831 -0.2619 -0.9773 -0.2645
  106SOL    HW1  422   0.702   0.363   0.855 -1.3608 -0.2681 -1.2770
  106SOL    HW2  423   0.854   0.394   0.885  1.4556 -0.8722  0.2969
  106SOL     MW  424   0.789   0.350   0.841 -0.1803 -0.8698 -0.3240
  107SOL     OW  425   0.812   2.189   2.883  0.5592  0.9120 -0.3538
  107SOL    HW1  426   0.717   2.199   2.878  3.3346 -0.0091  0.1506
  107SOL    HW2  427   0.824   2.138   2.968  0.0582 -2.2526 -1.1841
  107SOL     MW  428   0.801   2.184   2.894  0.8593  0.3730 -0.3968
  108SOL     OW  429   1.375   1.586   1.647 -0.3110  0.2481 -0.1953
  108SOL    HW1  430   1.319   1.561   1.569  0.0875  1.6767  0.1176
  108SOL    HW2  431   1.452   1.531   1.638  4.3405 -0.9136  1.9166
  108SOL     MW  432   1.378   1.575   1.635  0.3553  0.2834  0.1246
  109SOL     OW  433   2.033   0.766   0.291 -0.7223 -0.2645  0.9385
  109SOL    HW1  434   2.019   0.861   0.321  0.5580  1.9504  2.4868
  109SOL    HW2  435   2.087   0.720   0.357  0.2535 -0.5034  0.4702
  109SOL     MW  436   2.038   0.772   0.304 -0.4246 -0.0038  1.0810
  110SOL     OW  437   0.433   1.918   0.732  0.0540 -0.9474 -0.0160
  110SOL    HW1  438   0.506   1.862   0.705  1.7257 -2.2247  2.2711
  110SOL    HW2  439   0.453   2.011   0.705  2.0186  1.1825 -1.2031
  110SOL     MW  440   0.445   1.923   0.724  0.5337 -0.8349  0.1291
  111SOL     OW  441   0.848   0.888   1.373  0.1785 -0.2209  0.2382
  111SOL    HW1  442   0.837   0.895   1.278 -1.1401  0.0944  0.5461
  111SOL    HW2  443   0.789   0.814   1.389 -1.8907 -2.0785  1.8820
  111SOL     MW  444   0.839   0.879   1.362 -0.2685 -0.4244  0.4957
  112SOL     OW  445   1.402   1.095   1.576  0.2610  0.2486  0.0020
  112SOL    HW1  446   1.317   1.145   1.576  0.9304  1.4548 -1.3874
  112SOL    HW2  447   1.369   1.009   1.567  0.1641  0.9351 -0.6785
  112SOL     MW  448   1.386   1.091   1.575  0.3366  0.4983 -0.2711
  113SOL     OW  449   1.208   3.024   1.689 -0.0752 -0.1855  0.3165
  113SOL    HW1  450   1.228   2.977   1.771 -0.7486 -2.0629  0.1583
  113SOL    HW2  451   1.193   2.959   1.622 -2.7466  0.7741  2.4394
  113SOL     MW  452   1.209   3.009   1.691 -0.5165 -0.3066  0.5757
  114SOL     OW  453   0.263   2.874   1.816  0.1856 -0.4207 -1.1014
  114SOL    HW1  454   0.351   2.919   1.839  2.4624  1.5031 -1.1287
  114SOL    HW2  455   0.193   2.931   1.850 -0.1368 -2.7706 -1.4856
  114SOL     MW  456   0.266   2.888   1.824  0.4434 -0.4769 -1.1557
  115SOL     OW  457   0.516   0.832   1.183  0.3903  0.1102  0.2286
  115SOL    HW1  458   0.498   0.741   1.206 -0.9935  1.3223  1.4030
  115SOL    HW2  459   0.453   0.889   1.241 -3.3154  1.6599  0.4006
  115SOL     MW  460   0.505   0.827   1.194 -0.2812  0.4746  0.4063
  116SOL     OW  461   0.738   1.115   0.964 -0.8945  0.0985 -0.0646
  116SOL    HW1  462   0.783   1.182   0.905  1.7024  0.7057 -0.6731
  116SOL    HW2  463   0.742   1.157   1.050 -1.7337 -3.3329 -0.9284
  116SOL     MW  464   0.744   1.129   0.968 -0.6626 -0.2741 -0.2589
  117SOL     OW  465   1.120   1.258   0.819  0.2030  0.3681 -0.1377
  117SOL    HW1  466   1.145   1.194   0.881 -3.0956  1.0005 -1.3211
  117SOL    HW2  467   1.118   1.355   0.846 -0.3173  0.6981 -1.6354
  117SOL     MW  468   1.123   1.262   0.831 -0.3009  0.4951 -0.4915
  118SOL     OW  469   3.013   2.949   1.773 -0.1472 -0.3979  0.7852
  118SOL    HW1  470   3.063   3.032   1.778 -2.4257 -0.5815 -0.5500
  118SOL    HW2  471   2.922   2.973   1.744 -3.3528  1.8257  1.9774
  118SOL     MW  472   3.008   2.963   1.770 -0.8708 -0.1287  0.7663
  119SOL     OW  473   0.372   1.538   1.247 -0.6600 -0.1448 -0.5406
  119SOL    HW1  474   0.397   1.617   1.197  0.4530 -1.1368 -0.0047
  119SOL    HW2  475   0.284   1.511   1.219  1.1568 -4.1753  1.0151
  119SOL     MW  476   0.364   1.545   1.236 -0.2734 -0.8075 -0.2647
  120SOL     OW  477   0.258   0.801   0.988  0.4015  0.6087  0.1390
  120SOL    HW1  478   0.341   0.802   1.033  0.1031 -1.9899 -0.8547
  120SOL    HW2  479   0.262   0.856   0.912  1.3935  3.2119  2.3606
  120SOL     MW  480   0.269   0.808   0.984  0.4931  0.6093  0.3010
  121SOL     OW  481   1.776   1.127   1.619 -0.3962  0.2454 -0.3598
  121SOL    HW1  482   1.707   1.135   1.556 -0.1893 -0.5933 -1.6249
  121SOL    HW2  483   1.848   1.089   1.570  0.7457  2.1616  4.3901
  121SOL     MW  484   1.776   1.123   1.604 -0.2182  0.3876  0.1000
  122SOL     OW  485   0.123   0.624   0.848 -0.2282 -0.0505 -0.0809
  122SOL    HW1  486   0.186   0.562   0.818  1.5921 -2.0220  0.4782
  122SOL    HW2  487   0.170   0.684   0.902 -2.2296 -0.1204 -0.8276
  122SOL     MW  488   0.138   0.624   0.851 -0.2521 -0.3198 -0.1056
  123SOL     OW  489   1.876   1.102   0.541 -0.1988 -0.2575 -0.3108
  123SOL    HW1  490   1.796   1.054   0.560 -1.2406  2.8840  0.1012
  123SOL    HW2  491   1.942   1.071   0.606  1.8424 -3.0940 -1.5153
  123SOL     MW  492   1.874   1.092   0.552 -0.0669 -0.2172 -0.4153
  124SOL     OW  493   0.562   0.453   0.967  0.8351 -0.7036  0.1217
  124SOL    HW1  494   0.492   0.470   0.904  0.8303  0.6878  1.5678
  124SOL    HW2  495   0.628   0.521   0.950  0.8552 -0.0497 -0.7658
  124SOL     MW  496   0.562   0.464   0.957  0.8371 -0.4338  0.1954
  125SOL     OW  497   0.682   1.736   1.799  0.0963  0.1755 -0.4962
  125SOL    HW1  498   0.667   1.684   1.720 -1.7632  0.5933  0.2002
  125SOL    HW2  499   0.621   1.814   1.785 -0.6810 -1.9943 -2.3232
  125SOL     MW  500   0.672   1.739   1.787 -0.2516 -0.0556 -0.6454
  126SOL     OW  501   2.153   1.514   1.915 -0.4726  0.0864 -0.4472
  126SOL    HW1  502   2.228   1.569   1.921 -3.3227  1.2415  0.5042
  126SOL    HW2  503   2.196   1.429   1.941 -0.3471  0.3558  0.1603
  126SOL     MW  504   2.169   1.510   1.920 -0.8321  0.2743 -0.2415
  127SOL     OW  505   0.544   0.786   1.798 -0.0542 -0.2418  0.1548
  127SOL    HW1  506   0.639   0.782   1.790  3.5945 -0.7821  2.4499
  127SOL    HW2  507   0.521   0.849   1.866  1.5189 -0.7867 -0.4834
  127SOL     MW  508   0.554   0.794   1.806  0.6347 -0.3850  0.3734
  128SOL     OW  509   1.753   0.721   2.894  0.1301 -0.1291  0.5956
  128SOL    HW1  510   1.777   0.687   2.807  2.1494 -2.1533 -3.2862
  128SOL    HW2  511   1.729   0.813   2.887 -1.2384  0.2605  1.0217
  128SOL     MW  512   1.753   0.729   2.881  0.2160 -0.3448  0.1396
  129SOL     OW  513   1.579   0.914   0.185  0.0032 -0.5853 -0.0609
  129SOL    HW1  514   1.525   0.835   0.187  1.3798  0.3222 -0.7923
  129SOL    HW2  515   1.658   0.886   0.226 -2.5221  0.9838  0.3564
  129SOL     MW  516   1.582   0.900   0.191 -0.1483 -0.2585 -0.1023
  130SOL     OW  517   0.825   1.436   0.320 -0.1710  0.1950 -0.3724
  130SOL    HW1  518   0.829   1.417   0.419 -1.5474 -1.5945 -0.7618
  130SOL    HW2  519   0.921   1.452   0.299  3.1843  1.9771 -0.4807
  130SOL     MW  520   0.838   1.435   0.330  0.0901  0.1940 -0.4380
  131SOL     OW  521   0.045   0.781   0.070  0.5879  0.2854  0.5514
  131SOL    HW1  522   0.011   0.798  -0.021  1.1152  1.4650  0.4317
  131SOL    HW2  523   0.138   0.781   0.059 -1.8450 -2.2207 -1.2462
  131SOL     MW  524   0.053   0.784   0.056  0.3364  0.1104  0.2984
  132SOL     OW  525   2.742   0.096   1.257  0.5479 -0.0140  0.0756
  132SOL    HW1  526   2.773   0.089   1.165 -0.0878 -1.6169 -4.5754
  132SOL    HW2  527   2.649   0.072   1.263 -0.9315 -0.3022  1.9063
  132SOL     MW  528   2.734   0.092   1.245  0.2688 -0.2635 -0.2965
  133SOL     OW  529   1.059   0.133   1.677 -0.1986  0.2317  0.5907
  133SOL    HW1  530   1.114   0.050   1.676  0.9448 -1.2303 -0.9849
  133SOL    HW2  531   1.058   0.166   1.767  0.5340 -1.2173  0.7423
  133SOL     MW  532   1.066   0.126   1.689  0.0489 -0.1524  0.4029
  134SOL     OW  533   1.414   2.433   1.490  0.3286  0.4182 -0.0891
  134SOL    HW1  534   1.387   2.509   1.443 -0.5414  0.0100  2.7709
  134SOL    HW2  535   1.440   2.458   1.582 -1.4716 -1.0186 -1.4821
  134SOL     MW  536   1.414   2.446   1.496 -0.0237  0.1747  0.1045
  135SOL     OW  537   2.998   0.995   2.981  0.4510 -0.2175 -0.0690
  135SOL    HW1  538   3.092   1.016   3.001  0.3515  1.6057  0.0142
  135SOL    HW2  539   2.975   1.084   2.944  2.7254 -0.1080 -1.8797
  135SOL     MW  540   3.007   1.009   2.979  0.7380  0.0375 -0.2970
  136SOL     OW  541   0.185   1.967   0.868  0.0147 -0.0666 -0.0991
  136SOL    HW1  542   0.112   1.922   0.822  1.3921 -0.1046  3.0647
  136SOL    HW2  543   0.266   1.940   0.823 -2.6981 -1.6056 -0.7878
  136SOL     MW  544   0.186   1.958   0.856 -0.1615 -0.2747  0.2275
  137SOL     OW  545   0.744   2.057   0.565  0.8884  0.7634  0.3023
  137SOL    HW1  546   0.752   2.031   0.660 -0.3051  0.2679  1.0975
  137SOL    HW2  547   0.648   2.084   0.550  1.7861  0.5451  2.3582
  137SOL     MW  548   0.732   2.057   0.576  0.8494  0.6692  0.6785
  138SOL     OW  549   0.468   0.561   1.224  0.1062  0.5998 -0.5255
  138SOL    HW1  550   0.375   0.527   1.232  0.3112 -0.6787 -0.4230
  138SOL    HW2  551   0.512   0.511   1.155  1.5942 -0.2530 -0.7600
  138SOL     MW  552   0.462   0.550   1.216  0.3296  0.3186 -0.5429
  139SOL     OW  553   2.849   0.551   1.352  0.1441 -0.4659  0.1003
  139SOL    HW1  554   2.928   0.495   1.348  0.5409  2.1179 -0.2764
  139SOL    HW2  555   2.843   0.582   1.444  0.2790 -1.0922 -1.0218
  139SOL     MW  556   2.858   0.548   1.364  0.2142 -0.2076 -0.0974
  140SOL     OW  557   0.875   0.445   1.972 -0.3992 -0.1724  0.3416
  140SOL    HW1  558   0.928   0.369   1.951  1.4894 -0.8533  0.9309
  140SOL    HW2  559   0.856   0.448   2.063 -0.1215  1.3380 -0.3413
  140SOL     MW  560   0.880   0.436   1.981 -0.1134 -0.0629  0.3292
  141SOL     OW  561   1.027   0.607   1.623  0.4515 -0.6381  0.0136
  141SOL    HW1  562   1.041   0.518   1.588 -1.1310 -0.4394  0.3244
  141SOL    HW2  563   1.117   0.631   1.652  2.7571  1.0865 -0.4498
  141SOL     MW  564   1.041   0.598   1.622  0.5469 -0.3843 -0.0065
  142SOL     OW  565   0.871   1.212   0.739  0.0353  0.0194  0.1786
  142SOL    HW1  566   0.904   1.157   0.667 -0.5543 -2.1737  2.4916
  142SOL    HW2  567   0.959   1.238   0.767  1.2371 -0.7624 -1.1379
  142SOL     MW  568   0.887   1.208   0.733  0.1161 -0.3731  0.3101
  143SOL     OW  569   1.827   0.680   1.037 -0.2070  1.0358 -0.6558
  143SOL    HW1  570   1.875   0.726   0.973 -0.3969  0.3121  0.6860
  143SOL    HW2  571   1.734   0.690   1.011 -0.9444 -4.2560  1.4984
  143SOL     MW  572   1.821   0.687   1.025 -0.3294  0.2421 -0.1945
  144SOL     OW  573   0.254   1.315   1.736  0.1188 -0.4113 -0.2139
  144SOL    HW1  574   0.324   1.382   1.718 -3.1013  2.5710 -0.5821
  144SOL    HW2  575   0.292   1.250   1.799 -0.0845  0.9079 -2.0699
  144SOL     MW  576   0.268   1.315   1.742 -0.3328  0.1562 -0.5073
  145SOL     OW  577   0.156   0.452   1.247  0.5640  0.0441  0.2092
  145SOL    HW1  578   0.201   0.366   1.267 -0.1198  1.6483  1.3369
  145SOL    HW2  579   0.144   0.448   1.150  0.5207  2.0798 -1.5613
  145SOL     MW  580   0.160   0.440   1.237  0.4681  0.5244  0.1244
  146SOL     OW  581   0.809   1.921   1.442 -0.4991  0.1694  0.5991
  146SOL    HW1  582   0.835   1.944   1.348 -0.0857  0.1784  1.3778
  146SOL    HW2  583   0.727   1.872   1.440 -2.6006 -0.1226 -0.6269
  146SOL     MW  584   0.802   1.917   1.429 -0.7218  0.1321  0.5401
  147SOL     OW  585   0.446   0.485   2.916  0.3279  0.5516 -0.2891
  147SOL    HW1  586   0.390   0.477   2.991 -0.1484  0.0167 -0.8028
  147SOL    HW2  587   0.408   0.554   2.863  0.9351  0.2678  0.0692
  147SOL     MW  588   0.434   0.493   2.919  0.3452  0.4436 -0.3096
  148SOL     OW  589   0.074   0.907   1.317 -0.2415  0.0190  0.5282
  148SOL    HW1  590   0.165   0.939   1.307  1.7140  3.1126 -1.9755
  148SOL    HW2  591   0.030   0.979   1.360  0.6704  0.7735 -2.3322
  148SOL     MW  592   0.080   0.921   1.321  0.1368  0.5267 -0.1795
  149SOL     OW  593   1.585   1.158   1.408  0.1772  0.2877 -0.4720
  149SOL    HW1  594   1.522   1.129   1.471  2.2553  1.4587  0.3971
  149SOL    HW2  595   1.571   1.249   1.388  2.3238 -0.0612 -0.3753
  149SOL     MW  596   1.575   1.166   1.414  0.7346  0.3962 -0.3446
  150SOL     OW  597   1.723   1.443   0.895 -0.4408  0.8362 -0.0020
  150SOL    HW1  598   1.785   1.368   0.900  1.3241  2.9643 -0.0778
  150SOL    HW2  599   1.779   1.517   0.871  1.8211 -1.7154 -0.3363
  150SOL     MW  600   1.738   1.443   0.893  0.0905  0.7804 -0.0561
  151SOL     OW  601   1.667   1.902   0.822 -0.5007 -0.1952 -0.1712
  151SOL    HW1  602   1.650   1.874   0.727  0.3382 -0.3739  1.5857
  151SOL    HW2  603   1.616   1.840   0.872  1.2711 -0.4395  0.4704
  151SOL     MW  604   1.658   1.890   0.816 -0.1562 -0.2510  0.1452
  152SOL     OW  605   0.663   1.400   1.566 -0.2502  0.8146  0.0294
  152SOL    HW1  606   0.708   1.419   1.480 -6.7204 -2.0158 -0.7600
  152SOL    HW2  607   0.607   1.324   1.551  0.2942 -1.9879  0.3155
  152SOL     MW  608   0.662   1.392   1.553 -1.0320  0.0714 -0.0370
  153SOL     OW  609   2.585   1.215   0.711  0.8611  0.0495  0.0415
  153SOL    HW1  610   2.654   1.172   0.660 -1.8447 -0.4873  0.4982
  153SOL    HW2  611   2.529   1.134   0.734 -0.4877 -2.5267 -2.1828
  153SOL     MW  612   2.587   1.199   0.708  0.3261 -0.3612 -0.1917
  154SOL     OW  613   0.119   1.773   1.783  0.5719 -0.0804  0.2144
  154SOL    HW1  614   0.095   1.677   1.759 -0.1473 -1.1930  0.0480
  154SOL    HW2  615   0.207   1.767   1.817 -2.4424  3.4180  0.2172
  154SOL     MW  616   0.128   1.760   1.785  0.0793  0.2344  0.1928
  155SOL     OW  617   1.220   0.732   0.271  0.0163 -0.6577 -0.4006
  155SOL    HW1  618   1.211   0.694   0.366  0.9941 -0.3701 -1.0087
  155SOL    HW2  619   1.214   0.827   0.298 -1.4114  0.5509 -0.0016
  155SOL     MW  620   1.218   0.739   0.287 -0.0430 -0.4603 -0.4282
  156SOL     OW  621   1.544   3.099   1.084  0.2229  0.5574  0.2780
  156SOL    HW1  622   1.589   3.130   1.159  0.2728 -1.9502  0.4948
  156SOL    HW2  623   1.569   3.008   1.079 -1.4397  0.1162 -1.0022
  156SOL     MW  624   1.553   3.091   1.093  0.0101  0.1683  0.1377
  157SOL     OW  625   1.329   1.173   0.160  0.1182  0.0741  0.7032
  157SOL    HW1  626   1.372   1.093   0.183 -3.4622 -2.8218  1.3519
  157SOL    HW2  627   1.400   1.233   0.139  0.4994 -3.9306 -0.3149
  157SOL     MW  628   1.344   1.170   0.160 -0.3039 -0.8364  0.6545
  158SOL     OW  629   0.426   1.659   2.252 -0.2799  0.2169 -0.2350
  158SOL    HW1  630   0.486   1.703   2.190  0.1582  1.1326 -1.2367
  158SOL    HW2  631   0.346   1.704   2.232 -1.0018 -2.2487 -2.0944
  158SOL     MW  632   0.423   1.671   2.241 -0.3173  0.0124 -0.6125
  159SOL     OW  633   1.187   1.628   0.536  0.4742 -0.3638  0.6967
  159SOL    HW1  634   1.138   1.581   0.466  0.6672 -0.0333 -0.4744
  159SOL    HW2  635   1.123   1.691   0.575 -0.3640  0.2229  3.3585
  159SOL     MW  636   1.172   1.630   0.532  0.3891 -0.2428  0.8934
  160SOL     OW  637   0.514   1.179   1.554 -0.2070 -0.2848 -0.5287
  160SOL    HW1  638   0.451   1.108   1.591  1.2947 -0.3500  0.4453
  160SOL    HW2  639   0.602   1.135   1.547 -0.1159  0.7371  1.9944
  160SOL     MW  640   0.517   1.164   1.558  0.0032 -0.1586 -0.0673
  161SOL     OW  641   0.420   2.237   2.651  0.3495 -0.1931  0.5214
  161SOL    HW1  642   0.361   2.311   2.629 -4.0761  1.1580 -0.7979
  161SOL    HW2  643   0.433   2.169   2.580  1.9654  0.5020  1.2393
  161SOL     MW  644   0.414   2.238   2.639 -0.0212  0.0769  0.4421
  162SOL     OW  645   1.064   1.820   1.787 -0.2191  0.2453  0.6120
  162SOL    HW1  646   1.065   1.907   1.826 -1.1000 -2.9213  1.9879
  162SOL    HW2  647   1.001   1.773   1.838 -1.1676  0.9305 -1.5740
  162SOL     MW  648   1.056   1.825   1.799 -0.4604 -0.0821  0.5051
  163SOL     OW  649   2.114   3.098   0.841  0.0211  0.3176 -0.3096
  163SOL    HW1  650   2.087   3.157   0.773 -0.9432 -0.7399 -0.7371
  163SOL    HW2  651   2.080   3.006   0.808 -2.4668 -0.5596 -0.1001
  163SOL     MW  652   2.106   3.094   0.828 -0.4344  0.0624 -0.3383
  164SOL     OW  653   0.293   0.219   0.804 -0.5842  0.3329  0.1106
  164SOL    HW1  654   0.206   0.188   0.833  0.2061 -0.1832 -0.3828
  164SOL    HW2  655   0.326   0.151   0.747  1.1775  0.6276  2.8637
  164SOL     MW  656   0.286   0.206   0.801 -0.2475  0.3037  0.4087
  165SOL     OW  657   1.216   1.295   0.358 -0.2412  0.3729  0.5305
  165SOL    HW1  658   1.250   1.263   0.448  0.2053 -0.0101  0.1510
  165SOL    HW2  659   1.257   1.237   0.285 -0.3652  0.7598  2.0791
  165SOL     MW  660   1.226   1.283   0.360 -0.1987  0.3734  0.6847
  166SOL     OW  661   0.479   1.160   1.031 -0.0200  1.2434 -0.2161
  166SOL    HW1  662   0.434   1.160   1.121 -0.9945  0.5340  0.3803
  166SOL    HW2  663   0.575   1.144   1.033 -0.7643 -2.5466 -0.0786
  166SOL     MW  664   0.486   1.158   1.043 -0.2468  0.6498 -0.1193
  167SOL     OW  665   0.806   1.178   0.302 -0.3504  0.4570  0.5619
  167SOL    HW1  666   0.840   1.268   0.313  2.0487  0.7152 -0.5099
  167SOL    HW2  667   0.880   1.141   0.245  1.6962 -2.7770  0.1819
  167SOL     MW  668   0.820   1.185   0.296  0.2362  0.0644  0.3704
  168SOL     OW  669   1.721   1.621   3.042 -0.0895  0.2145  0.0111
  168SOL    HW1  670   1.644   1.678   3.022 -1.6921 -0.9150 -0.5400
  168SOL    HW2  671   1.695   1.536   3.009  0.2535  0.2968 -1.5113
  168SOL     MW  672   1.708   1.618   3.035 -0.2557  0.0763 -0.2625
  169SOL     OW  673   0.325   1.011   1.332 -0.1487 -0.7582 -0.4032
  169SOL    HW1  674   0.323   0.990   1.424  1.0162  2.2419 -1.8157
  169SOL    HW2  675   0.348   1.105   1.321  0.7565 -0.3133 -0.7406
  169SOL     MW  676   0.328   1.020   1.343  0.1245 -0.3036 -0.6341
  170SOL     OW  677   1.138   1.508   1.463 -0.5680  0.0572 -0.1014
  170SOL    HW1  678   1.093   1.568   1.526  1.4296  2.2679 -0.1062
  170SOL    HW2  679   1.113   1.538   1.375  0.3813 -1.0365  0.0405
  170SOL     MW  680   1.129   1.520   1.460 -0.1792  0.2046 -0.0833
  171SOL     OW  681   0.505   1.455   0.547 -0.5847 -0.0954  0.7755
  171SOL    HW1  682   0.443   1.513   0.510  3.8908 -1.7213  0.8865
  171SOL    HW2  683   0.518   1.368   0.489  2.8384 -2.1968 -2.1423
  171SOL     MW  684   0.499   1.451   0.535  0.4574 -0.5872  0.4052
  172SOL     OW  685   0.765   0.298   1.271 -0.1102 -0.2031 -0.6448
  172SOL    HW1  686   0.751   0.259   1.184  2.9305 -0.7881  1.1312
  172SOL    HW2  687   0.802   0.221   1.318 -0.0523 -2.2325  3.1733
  172SOL     MW  688   0.768   0.283   1.265  0.2986 -0.5480  0.0933
  173SOL     OW  689   0.561   1.718   0.324  0.3532 -0.8499  0.3727
  173SOL    HW1  690   0.568   1.639   0.281 -0.1551  2.6942 -0.0766
  173SOL    HW2  691   0.649   1.752   0.350  0.6477 -1.6009 -0.6756
  173SOL     MW  692   0.573   1.712   0.322  0.3250 -0.4814  0.1751
  174SOL     OW  693   1.894   0.866   1.495  0.8196  0.5269  0.1102
  174SOL    HW1  694   1.809   0.837   1.536 -0.7359  1.9596 -1.9503
  174SOL    HW2  695   1.872   0.878   1.400  3.7945  1.2084  0.0607
  174SOL     MW  696   1.880   0.864   1.488  1.0069  0.8058 -0.1682
  175SOL     OW  697   0.573   1.483   0.158  0.5368 -0.1313  0.4598
  175SOL    HW1  698   0.536   1.396   0.144 -2.4199  0.9325  1.1219
  175SOL    HW2  699   0.656   1.465   0.204 -3.4322 -2.1860  1.0008
  175SOL     MW  700   0.579   1.469   0.162 -0.3770 -0.2621  0.6185
  176SOL     OW  701   0.111   1.495   1.192 -0.0336  0.6427  0.0657
  176SOL    HW1  702   0.103   1.439   1.110  0.6318 -3.5525 -1.3445
  176SOL    HW2  703   0.040   1.464   1.246  0.7942  1.1323  0.4371
  176SOL     MW  704   0.101   1.484   1.188  0.1634  0.1538 -0.0714
  177SOL     OW  705   0.503   0.327   1.420 -0.4060 -0.0054  0.2653
  177SOL    HW1  706   0.548   0.343   1.337 -2.0813  1.8165 -1.2024
  177SOL    HW2  707   0.510   0.406   1.477  2.2222 -3.7612  1.4630
  177SOL     MW  708   0.510   0.340   1.417 -0.2803 -0.2606  0.2297
  178SOL     OW  709   3.067   0.500   3.018 -0.4747  0.7779  0.1958
  178SOL    HW1  710   2.996   0.525   3.068  1.0585 -3.4332  1.8873
  178SOL    HW2  711   3.025   0.493   2.930 -1.1786 -2.6007 -3.2878
  178SOL     MW  712   3.052   0.503   3.013 -0.3653 -0.2235 -0.0406
  179SOL     OW  713   1.534   1.469   1.338  0.1089  0.0449  0.8682
  179SOL    HW1  714   1.538   1.466   1.430  0.8279 -0.6249 -0.1755
  179SOL    HW2  715   1.627   1.451   1.310 -2.1029 -0.2177 -0.9075
  179SOL     MW  716   1.547   1.466   1.346 -0.0880 -0.0782  0.4962
  180SOL     OW  717   0.008   0.282   0.429  0.2177 -0.3133 -0.5976
  180SOL    HW1  718  -0.077   0.297   0.393 -2.2981  1.5500  1.4355
  180SOL    HW2  719   0.046   0.372   0.437  1.0141  1.9626 -0.8274
  180SOL     MW  720   0.002   0.296   0.426 -0.0092  0.2328 -0.3597
  181SOL     OW  721   1.086   1.295   3.090 -0.2276  0.4477  0.2352
  181SOL    HW1  722   1.139   1.370   3.116 -1.8040 -1.0136  0.1652
  181SOL    HW2  723   1.137   1.227   3.034 -3.4609  0.2524 -4.0034
  181SOL     MW  724   1.100   1.296   3.086 -0.8622  0.2291 -0.3333
  182SOL     OW  725   0.375   0.959   1.630 -0.1064 -0.4860 -0.4858
  182SOL    HW1  726   0.294   0.926   1.675  2.1568 -1.7642 -3.9974
  182SOL    HW2  727   0.427   0.879   1.639  0.0106  0.0893  1.2195
  182SOL     MW  728   0.371   0.944   1.638  0.2076 -0.5787 -0.7241
  183SOL     OW  729   1.576   1.760   1.291 -0.1561  0.3152 -0.0586
  183SOL    HW1  730   1.676   1.758   1.301 -0.4837 -0.0238  1.7873
  183SOL    HW2  731   1.544   1.682   1.333  1.3637  1.6540 -0.5097
  183SOL     MW  732   1.585   1.749   1.298  0.0012  0.4471  0.1254
  184SOL     OW  733   0.807   0.713   1.776  0.1299 -0.2750 -0.1187
  184SOL    HW1  734   0.898   0.735   1.754  1.2362 -0.2407 -0.2854
  184SOL    HW2  735   0.812   0.619   1.803  0.2552 -2.1448  0.7254
  184SOL     MW  736   0.820   0.703   1.777  0.2924 -0.5172 -0.0293
  185SOL     OW  737   1.128   0.960   1.862  0.3356 -0.0701  0.2821
  185SOL    HW1  738   1.090   0.883   1.909  1.2728  1.4496  3.1774
  185SOL    HW2  739   1.183   0.998   1.936  0.8837 -2.1491  1.5650
  185SOL     MW  740   1.130   0.954   1.878  0.5316 -0.1439  0.8334
  186SOL     OW  741   0.278   1.614   1.498 -0.2200  0.0240  0.9988
  186SOL    HW1  742   0.272   1.602   1.406 -1.3684  1.6466  1.2381
  186SOL    HW2  743   0.200   1.564   1.530 -3.2931  0.5989 -1.7563
  186SOL     MW  744   0.267   1.606   1.490 -0.7770  0.3140  0.6669
  187SOL     OW  745   1.414   0.758   1.386 -0.7162  0.1902  0.0808
  187SOL    HW1  746   1.445   0.749   1.475  0.3512  0.5937  0.3541
  187SOL    HW2  747   1.318   0.768   1.376 -1.4810  1.4435 -0.8154
  187SOL     MW  748   1.405   0.758   1.396 -0.6763  0.4088 -0.0014
  188SOL     OW  749   1.902   1.199   0.870 -0.0683  0.3204  0.9286
  188SOL    HW1  750   1.905   1.197   0.968  1.0386 -0.9947  3.3482
  188SOL    HW2  751   1.909   1.103   0.855  0.4571  0.4872 -1.6480
  188SOL     MW  752   1.904   1.186   0.881  0.1470  0.1689  0.9079
  189SOL     OW  753   0.686   0.715   0.869  0.2256 -0.3965  0.1732
  189SOL    HW1  754   0.614   0.778   0.850  2.4095  0.2559  3.7184
  189SOL    HW2  755   0.744   0.754   0.934  0.1483  0.5280 -1.7506
  189SOL     MW  756   0.684   0.729   0.875  0.5035 -0.1885  0.3871
  190SOL     OW  757   1.863   0.305   2.085 -0.6092  0.0665 -0.4526
  190SOL    HW1  758   1.854   0.253   2.173 -0.7955 -3.7210  0.6356
  190SOL    HW2  759   1.961   0.329   2.085  1.1082  1.9309  1.5906
  190SOL     MW  760   1.875   0.302   2.096 -0.4072 -0.1872 -0.0395
  191SOL     OW  761   1.558   0.967   1.225  0.6244 -0.2558 -0.4083
  191SOL    HW1  762   1.548   1.036   1.287 -1.2136 -1.7595 -0.9103
  191SOL    HW2  763   1.504   0.895   1.261 -0.2451  0.0003 -0.5032
  191SOL     MW  764   1.549   0.966   1.238  0.2672 -0.4204 -0.4871
  192SOL     OW  765   0.523   2.193   2.905 -0.6873  0.0366  0.5818
  192SOL    HW1  766   0.478   2.223   2.826 -1.0887 -0.2947 -0.8162
  192SOL    HW2  767   0.530   2.107   2.868 -0.9011  0.2339  3.4639
  192SOL     MW  768   0.518   2.186   2.890 -0.7685  0.0189  0.7776
  193SOL     OW  769   0.816   1.644   0.802 -0.2212 -0.4715 -0.7436
  193SOL    HW1  770   0.725   1.615   0.844 -3.6244 -0.7181  1.6189
  193SOL    HW2  771   0.814   1.601   0.716  0.3078  2.7426  1.7138
  193SOL     MW  772   0.804   1.635   0.796 -0.6004 -0.0800 -0.1077
  194SOL     OW  773   0.464   1.325   0.832 -0.4578 -0.2570  0.8950
  194SOL    HW1  774   0.458   1.268   0.916  0.0194  1.4815  1.3323
  194SOL    HW2  775   0.374   1.340   0.798  0.5506  0.8931 -1.6007
  194SOL     MW  776   0.451   1.320   0.839 -0.2618  0.1241  0.6234
  195SOL     OW  777   1.260   1.086   2.995 -0.7522 -0.1203  0.4780
  195SOL    HW1  778   1.309   1.091   3.074 -0.9833  0.9231 -0.0253
  195SOL    HW2  779   1.202   1.012   3.004 -2.1023  0.6648  0.3131
  195SOL     MW  780   1.259   1.077   3.007 -0.9608  0.1210  0.3898
  196SOL     OW  781   2.256   1.018   0.573 -0.6520 -0.2957 -0.9488
  196SOL    HW1  782   2.258   1.025   0.480  0.4972  1.0657  2.8981
  196SOL    HW2  783   2.242   1.112   0.595  1.5810 -0.3646 -1.0591
  196SOL     MW  784   2.255   1.031   0.563 -0.2058 -0.1252 -0.4558
  197SOL     OW  785   0.615   1.355   2.185 -0.6983 -0.1839 -0.4312
  197SOL    HW1  786   0.633   1.273   2.138 -0.0802 -0.4857 -1.2905
  197SOL    HW2  787   0.689   1.410   2.155 -1.5455 -2.0873 -0.0536
  197SOL     MW  788   0.627   1.351   2.175 -0.7285 -0.4749 -0.4947
  198SOL     OW  789   2.935   1.432   0.979 -0.0668 -0.2390  0.4142
  198SOL    HW1  790   2.944   1.522   0.960 -0.6127 -0.6805 -2.0118
  198SOL    HW2  791   2.865   1.392   0.930  1.1113  0.4918 -0.4708
  198SOL     MW  792   2.927   1.439   0.970  0.0166 -0.2008 -0.0227
  199SOL     OW  793   0.667   1.294   1.826 -0.5368 -0.6269  0.4056
  199SOL    HW1  794   0.576   1.262   1.850 -1.4619 -1.9749  2.5068
  199SOL    HW2  795   0.663   1.321   1.731 -0.8394 -0.7772 -0.2985
  199SOL     MW  796   0.654   1.293   1.816 -0.6988 -0.8246  0.5899
  200SOL     OW  797   1.835   2.935   1.310 -0.3565  0.6331 -0.5291
  200SOL    HW1  798   1.889   2.951   1.230  2.4401  0.8909 -2.6125
  200SOL    HW2  799   1.755   2.997   1.295  0.7801 -1.0012 -2.1167
  200SOL     MW  800   1.831   2.945   1.298  0.1624  0.4515 -1.0135
  201SOL     OW  801   1.183   0.324   0.812  0.0924 -0.2486  0.3378
  201SOL    HW1  802   1.153   0.228   0.809  4.1695 -0.7260 -0.5554
  201SOL    HW2  803   1.274   0.318   0.846  0.7639 -2.1647 -0.3407
  201SOL     MW  804   1.191   0.310   0.816  0.7189 -0.5644  0.1304
  202SOL     OW  805   1.503   1.730   0.981 -0.0049 -1.0326 -0.1017
  202SOL    HW1  806   1.492   1.640   0.955  0.6509  1.3802  1.9133
  202SOL    HW2  807   1.553   1.733   1.057 -1.9658 -0.1202  0.7655
  202SOL     MW  808   1.508   1.718   0.988 -0.1771 -0.5939  0.2786
  203SOL     OW  809   3.013   0.347   1.307 -0.0932  0.1160 -0.1547
  203SOL    HW1  810   3.051   0.259   1.312  1.3688 -3.1756  4.2583
  203SOL    HW2  811   3.085   0.395   1.264  0.5946 -0.4936 -2.7039
  203SOL     MW  812   3.028   0.342   1.302  0.1904 -0.3987  0.0912
  204SOL     OW  813   1.013   1.801   0.660 -0.6132  0.5635  0.1849
  204SOL    HW1  814   0.988   1.744   0.735  1.0044 -0.4065  2.0182
  204SOL    HW2  815   0.951   1.786   0.591 -1.0166  0.9851  2.1821
  204SOL     MW  816   1.001   1.792   0.661 -0.4530  0.4912  0.6903
  205SOL     OW  817   1.397   3.030   1.315  0.3136 -0.2316 -0.0806
  205SOL    HW1  818   1.440   3.042   1.228  2.5530  1.2852  0.2272
  205SOL    HW2  819   1.341   3.107   1.325  2.1911  0.4011  0.3002
  205SOL     MW  820   1.395   3.042   1.305  0.8568  0.0520  0.0102
  206SOL     OW  821   0.394   2.949   1.345 -0.2585 -0.6458 -0.4139
  206SOL    HW1  822   0.362   2.981   1.259  1.0861  3.5275  0.5737
  206SOL    HW2  823   0.490   2.955   1.352  1.1983 -2.3984  1.1888
  206SOL     MW  824   0.403   2.954   1.335  0.1111 -0.3264 -0.0721
  207SOL     OW  825   0.869   1.771   0.204  0.4068 -0.6735  0.2621
  207SOL    HW1  826   0.910   1.849   0.167 -2.6842  0.1352  1.8922
  207SOL    HW2  827   0.927   1.698   0.194 -0.5979  1.3809  0.1440
  207SOL     MW  828   0.882   1.772   0.198 -0.1336 -0.2958  0.4616
  208SOL     OW  829   0.785   1.562   1.365  0.2197 -0.2299 -0.9254
  208SOL    HW1  830   0.873   1.598   1.343 -0.2106 -1.3514 -1.0320
  208SOL    HW2  831   0.752   1.557   1.280  2.3849  0.8212 -2.3363
  208SOL     MW  832   0.792   1.566   1.351  0.4486 -0.2392 -1.1256
  209SOL     OW  833   1.559   0.510   2.844  0.9067 -0.3166 -0.2104
  209SOL    HW1  834   1.620   0.579   2.867  1.7651  0.4644 -0.7235
  209SOL    HW2  835   1.610   0.428   2.821  1.3693  0.4036 -0.7725
  209SOL     MW  836   1.574   0.508   2.844  1.0810 -0.1186 -0.3523
  210SOL     OW  837   1.463   1.462   0.954  0.0547 -0.0377 -0.0748
  210SOL    HW1  838   1.559   1.474   0.948  2.1290  1.0756  2.8729
  210SOL    HW2  839   1.425   1.452   0.865 -1.3607 -0.9194 -0.1857
  210SOL     MW  840   1.470   1.462   0.942  0.1416 -0.0071  0.2995
  211SOL     OW  841   1.723   0.373   0.933  0.2112  0.9095 -0.7775
  211SOL    HW1  842   1.719   0.410   0.842 -0.3757 -0.3067 -1.0571
  211SOL    HW2  843   1.808   0.376   0.973 -3.4923 -0.6427  0.5156
  211SOL     MW  844   1.734   0.378   0.926 -0.3549  0.5442 -0.6438
  212SOL     OW  845   0.345   1.146   0.231  0.6045 -0.3301 -0.1914
  212SOL    HW1  846   0.260   1.100   0.242  0.8802  1.1103  1.1793
  212SOL    HW2  847   0.380   1.102   0.150  1.8711  0.2191 -1.1786
  212SOL     MW  848   0.338   1.134   0.221  0.8080 -0.0676 -0.1408
  213SOL     OW  849   0.367   1.871   3.018  0.0036 -0.0184 -0.1115
  213SOL    HW1  850   0.415   1.907   3.088 -1.2844 -0.2074 -1.7597
  213SOL    HW2  851   0.425   1.872   2.935 -0.0655 -0.3178 -2.8763
  213SOL     MW  852   0.381   1.875   3.017 -0.1755 -0.0828 -0.6938
  214SOL     OW  853   0.586   0.306   2.121  0.0352  0.6576 -0.2424
  214SOL    HW1  854   0.519   0.367   2.128 -0.9325  0.8333  2.6855
  214SOL    HW2  855   0.635   0.303   2.036 -0.6371 -1.6114 -0.7079
  214SOL     MW  856   0.584   0.314   2.110 -0.1811  0.3814  0.0825
  215SOL     OW  857   0.498   0.544   2.537 -0.3303 -0.4293 -0.1069
  215SOL    HW1  858   0.472   0.594   2.464  0.7975  1.2209 -1.5696
  215SOL    HW2  859   0.465   0.460   2.509  2.3897  0.3975 -2.8400
  215SOL     MW  860   0.490   0.540   2.524  0.1774 -0.1025 -0.6605
  216SOL     OW  861   2.915   3.083   2.722 -0.2248 -0.3769  0.2679
  216SOL    HW1  862   2.877   3.071   2.812 -1.5560  0.1043 -0.1007
  216SOL    HW2  863   2.929   3.185   2.705 -1.4760  2.7322  1.6928
  216SOL     MW  864   2.912   3.095   2.732 -0.5655  0.0968  0.4073
  217SOL     OW  865   1.007   1.078   0.162  0.0671  0.0786 -0.0740
  217SOL    HW1  866   1.032   1.017   0.094  1.0636  1.1841  2.2390
  217SOL    HW2  867   1.056   1.158   0.123 -1.1550  1.2746 -0.8074
  217SOL     MW  868   1.017   1.081   0.148  0.0373  0.3823  0.1344
  218SOL     OW  869   0.848   1.376   2.642  0.0327 -0.8303 -0.3239
  218SOL    HW1  870   0.829   1.306   2.708 -1.5383  1.3475  1.2025
  218SOL    HW2  871   0.945   1.394   2.643 -0.4954  0.6407  2.9623
  218SOL     MW  872   0.858   1.369   2.651 -0.2443 -0.3489  0.3111
  219SOL     OW  873   1.043   0.412   2.615 -0.0602  0.5416 -0.1130
  219SOL    HW1  874   1.115   0.459   2.652  0.0644  0.6994 -2.0857
  219SOL    HW2  875   0.968   0.475   2.617  1.3776 -0.2331  0.3340
  219SOL     MW  876   1.043   0.426   2.620  0.1460  0.4602 -0.3143
  220SOL     OW  877   1.736   0.532   2.172 -0.4804 -0.1983  0.0274
  220SOL    HW1  878   1.641   0.544   2.149  0.3900  0.3603 -2.9692
  220SOL    HW2  879   1.762   0.455   2.122  1.4714  0.2700 -0.0096
  220SOL     MW  880   1.727   0.523   2.162 -0.1080 -0.0628 -0.3728
  221SOL     OW  881   0.371   1.346   2.930  0.6423  0.8030  0.0506
  221SOL    HW1  882   0.441   1.283   2.916 -2.2956 -0.3440 -1.0202
  221SOL    HW2  883   0.393   1.424   2.888 -2.2067  0.0482  2.1987
  221SOL     MW  884   0.383   1.348   2.922 -0.1212  0.5521  0.1927
  222SOL     OW  885   0.503   0.951   2.702  0.0006 -0.5752  0.4377
  222SOL    HW1  886   0.414   0.948   2.669 -1.7661  0.8406  2.4680
  222SOL    HW2  887   0.529   0.867   2.731  1.0645  2.3435 -0.1135
  222SOL     MW  888   0.495   0.940   2.702 -0.0922 -0.0033  0.6328
  223SOL     OW  889   0.001   2.036   2.521 -0.3473 -0.5012 -0.0130
  223SOL    HW1  890   0.031   2.029   2.612 -3.5850  3.3354  0.4641
  223SOL    HW2  891   0.048   2.116   2.486  1.9123 -0.2514 -0.1437
  223SOL     MW  892   0.011   2.045   2.528 -0.4764  0.0380  0.0327
  224SOL     OW  893   1.446   0.705   2.454 -0.0539 -0.2858 -0.2942
  224SOL    HW1  894   1.538   0.682   2.480  2.4377 -0.3518 -2.2439
  224SOL    HW2  895   1.449   0.795   2.477 -1.3511 -1.0925  0.6867
  224SOL     MW  896   1.459   0.714   2.461  0.1037 -0.4009 -0.4221
  225SOL     OW  897   2.924   1.467   2.309  0.4861  0.3940 -0.4275
  225SOL    HW1  898   2.961   1.547   2.277  1.2050 -1.2240 -1.2429
  225SOL    HW2  899   2.834   1.489   2.341  0.2824 -2.1524 -1.5974
  225SOL     MW  900   2.917   1.480   2.309  0.5541 -0.1554 -0.6894
  226SOL     OW  901   0.426   1.495   2.704  0.0690  0.2739 -0.6455
  226SOL    HW1  902   0.516   1.521   2.685 -1.1582  3.1760  1.5110
  226SOL    HW2  903   0.382   1.583   2.707  0.4713  3.7740  0.1628
  226SOL     MW  904   0.432   1.510   2.702 -0.0398  1.1186 -0.2543
  227SOL     OW  905   0.546   1.137   2.914  0.3712 -0.4908 -0.4324
  227SOL    HW1  906   0.634   1.163   2.903 -2.1046 -1.9043  3.2384
  227SOL    HW2  907   0.519   1.071   2.846  1.4742  0.2448 -0.5963
  227SOL     MW  908   0.554   1.131   2.904  0.1900 -0.5802  0.0303
  228SOL     OW  909   0.736   1.141   2.041 -0.4145  0.3386 -0.1871
  228SOL    HW1  910   0.723   1.197   1.964  1.6040 -1.2397  1.5209
  228SOL    HW2  911   0.825   1.166   2.068 -0.0852 -0.6315 -1.1681
  228SOL     MW  912   0.746   1.152   2.034 -0.1047  0.0023 -0.0912
  229SOL     OW  913   0.250   0.548   3.091 -0.5023 -0.0692  0.0932
  229SOL    HW1  914   0.166   0.542   3.044  1.5118  0.6862  3.1013
  229SOL    HW2  915   0.238   0.462   3.144 -0.0411 -1.4666  1.6319
  229SOL     MW  916   0.237   0.536   3.092 -0.1757 -0.1539  0.6931
  230SOL     OW  917   1.786   1.355   2.025 -0.2920 -0.3999  0.3832
  230SOL    HW1  918   1.752   1.310   2.101  1.0825  1.8452 -0.7340
  230SOL    HW2  919   1.832   1.300   1.968 -4.2907  0.2310 -0.9759
  230SOL     MW  920   1.788   1.342   2.028 -0.6382 -0.0204  0.0565
  231SOL     OW  921   2.705   1.228   2.265 -0.0926  0.1727 -0.1906
  231SOL    HW1  922   2.769   1.298   2.251 -1.3917 -1.1275 -3.1434
  231SOL    HW2  923   2.665   1.231   2.181  2.8938 -1.4076 -3.0534
  231SOL     MW  924   2.708   1.238   2.252  0.1300 -0.2073 -0.9579
  232SOL     OW  925   2.290   0.857   1.930  0.0041  0.5395 -0.1557
  232SOL    HW1  926   2.204   0.863   1.879  1.2619  2.5106 -0.0785
  232SOL    HW2  927   2.270   0.853   2.022 -3.6047  1.9782 -0.7616
  232SOL     MW  928   2.276   0.857   1.936 -0.3061  0.9894 -0.2254
  233SOL     OW  929   2.105   0.422   2.086  0.3577 -0.0687 -0.0887
  233SOL    HW1  930   2.159   0.360   2.039  2.3877  0.7808 -0.5793
  233SOL    HW2  931   2.158   0.456   2.160  2.0038  2.4596  3.1267
  233SOL     MW  932   2.119   0.419   2.090  0.8427  0.3770  0.2708
  234SOL     OW  933   0.223   1.049   2.652  0.4048  0.4558  0.0264
  234SOL    HW1  934   0.155   1.042   2.583 -2.0621  2.3791 -0.5533
  234SOL    HW2  935   0.264   1.137   2.626 -1.2028  0.5189 -2.1835
  234SOL     MW  936   0.219   1.060   2.640 -0.1327  0.7179 -0.3417
  235SOL     OW  937   1.142   3.018   2.817  0.7396  0.5591 -0.4363
  235SOL    HW1  938   1.197   3.018   2.893 -0.0350  0.2464 -0.4292
  235SOL    HW2  939   1.115   3.116   2.821 -2.5108 -1.8152  4.1009
  235SOL     MW  940   1.146   3.031   2.828  0.2085  0.2046  0.1632
  236SOL     OW  941   2.950   0.623   0.219 -0.3068  0.0079 -0.0926
  236SOL    HW1  942   2.958   0.639   0.312  1.8779  0.5789 -0.3234
  236SOL    HW2  943   3.017   0.666   0.169 -2.1256  0.3057 -1.8874
  236SOL     MW  944   2.960   0.630   0.225 -0.2585  0.1225 -0.3598
  237SOL     OW  945   1.917   1.098   2.167  0.0350  0.6908  0.5672
  237SOL    HW1  946   1.825   1.131   2.184 -1.0118  2.2012  1.8112
  237SOL    HW2  947   1.908   1.050   2.080 -3.9434 -0.2029 -1.8104
  237SOL     MW  948   1.904   1.096   2.158 -0.6280  0.7722  0.4176
  238SOL     OW  949   1.073   1.734   2.938 -0.3961 -0.0168 -0.0947
  238SOL    HW1  950   1.003   1.678   2.901 -1.5551 -2.0012 -0.8904
  238SOL    HW2  951   1.147   1.675   2.924 -0.1146  1.7996 -2.2950
  238SOL     MW  952   1.073   1.719   2.932 -0.5119 -0.0390 -0.4900
  239SOL     OW  953   1.184   1.291   2.329  0.3440 -0.0322  0.7501
  239SOL    HW1  954   1.097   1.296   2.289 -0.6086  0.9493  0.7757
  239SOL    HW2  955   1.161   1.226   2.399 -1.7512  1.8596 -1.8763
  239SOL     MW  956   1.169   1.283   2.333 -0.0581  0.3469  0.4070
  240SOL     OW  957   0.578   0.868   2.246 -0.2835 -0.3417  0.4192
  240SOL    HW1  958   0.587   0.923   2.333 -0.6816  0.8714  5.0478
  240SOL    HW2  959   0.670   0.845   2.230 -1.9615 -3.2813  3.5027
  240SOL     MW  960   0.591   0.872   2.255 -0.5574 -0.5695  1.4368
  241SOL     OW  961   0.671   0.443   3.070  0.1712  0.0334  0.4792
  241SOL    HW1  962   0.688   0.521   3.120  0.9033 -0.8434 -1.3565
  241SOL    HW2  963   0.597   0.478   3.014 -0.3471 -0.0676  0.5818
  241SOL     MW  964   0.663   0.458   3.069  0.1994 -0.0956  0.2505
  242SOL     OW  965   1.510   1.667   2.310 -0.2879 -0.2669 -0.3819
  242SOL    HW1  966   1.448   1.741   2.328 -3.9913  1.9623  0.6230
  242SOL    HW2  967   1.452   1.603   2.264  0.9809 -0.9813  0.1372
  242SOL     MW  968   1.494   1.668   2.307 -0.6091 -0.0670 -0.1808
  243SOL     OW  969   1.037   0.318   2.363  0.4054 -0.3024  0.2921
  243SOL    HW1  970   1.120   0.267   2.346 -0.9257  1.3574 -2.2785
  243SOL    HW2  971   1.045   0.369   2.441 -0.6242  1.2387  0.3968
  243SOL     MW  972   1.049   0.318   2.371  0.0939  0.1199 -0.0332
  244SOL     OW  973   0.133   0.741   2.376  0.2510 -0.1132 -0.1944
  244SOL    HW1  974   0.111   0.833   2.351  0.6221  0.8488  0.8045
  244SOL    HW2  975   0.220   0.738   2.342  0.9460  0.9112  0.5043
  244SOL     MW  976   0.142   0.753   2.368  0.3917  0.1489  0.0296
  245SOL     OW  977   1.270   0.184   2.405 -1.1100  0.9287 -0.2233
  245SOL    HW1  978   1.318   0.120   2.347  0.1780 -0.1379 -2.3785
  245SOL    HW2  979   1.268   0.141   2.497 -1.3411 -0.4674  0.5027
  245SOL     MW  980   1.276   0.170   2.409 -0.9706  0.6038 -0.4119
  246SOL     OW  981   1.232   1.108   2.089 -0.4174  0.5070 -0.5960
  246SOL    HW1  982   1.163   1.081   2.152 -2.2923 -1.9864  0.2343
  246SOL    HW2  983   1.316   1.111   2.143  0.7650 -0.9986  1.2042
  246SOL     MW  984   1.234   1.105   2.105 -0.5087 -0.0206 -0.2489
  247SOL     OW  985   0.756   0.651   0.136 -0.2133 -0.2299  0.2788
  247SOL    HW1  986   0.751   0.749   0.135 -2.6596  0.7223  1.9739
  247SOL    HW2  987   0.851   0.626   0.120 -0.4607  2.4586  0.4869
  247SOL     MW  988   0.768   0.661   0.134 -0.5687  0.2505  0.5299
  248SOL     OW  989   0.288   1.296   2.543  0.0230  0.5674  0.4071
  248SOL    HW1  990   0.308   1.327   2.449 -0.3687 -0.5040  0.5580
  248SOL    HW2  991   0.357   1.338   2.593 -2.2208 -2.3180  1.5231
  248SOL     MW  992   0.300   1.306   2.537 -0.3248  0.0453  0.5743
  249SOL     OW  993   2.969   1.940   2.782  0.1572  0.2796  0.0409
  249SOL    HW1  994   2.902   1.874   2.763 -1.6152  1.9319 -0.6277
  249SOL    HW2  995   3.031   1.899   2.841 -0.9419 -0.1177 -0.4211
  249SOL     MW  996   2.968   1.926   2.787 -0.2217  0.4452 -0.1083
  250SOL     OW  997   2.222   0.815   2.195  0.5183  0.1568 -0.2447
  250SOL    HW1  998   2.199   0.723   2.223  1.3873 -5.6236  3.2915
  250SOL    HW2  999   2.139   0.855   2.172 -0.9523  1.4331 -1.4588
  250SOL     MW 1000   2.208   0.808   2.196  0.4389 -0.4375  0.0617
  251SOL     OW 1001   0.128   0.879   2.057  0.1863  0.3060 -0.0842
  251SOL    HW1 1002   0.076   0.801   2.092 -1.3223 -2.0374  0.8594
  251SOL    HW2 1003   0.133   0.863   1.964 -0.4956 -0.0276  2.0238
  251SOL     MW 1004   0.122   0.867   2.049 -0.1027 -0.0472  0.3184
  252SOL     OW 1005   1.684   0.972   2.853  0.4274  0.1888  0.3259
  252SOL    HW1 1006   1.714   0.997   2.943 -0.4171  2.0136  0.6233
  252SOL    HW2 1007   1.768   0.963   2.795  0.3337  0.0849 -1.7805
  252SOL     MW 1008   1.699   0.974   2.857  0.3036  0.4158  0.0872
  253SOL     OW 1009   1.175   1.723   2.473 -0.2793  0.2075  0.6771
  253SOL    HW1 1010   1.165   1.693   2.381 -0.9464  0.1798 -0.2992
  253SOL    HW2 1011   1.103   1.789   2.472  0.8069 -3.5564  0.3563
  253SOL     MW 1012   1.164   1.728   2.461 -0.2240 -0.2928  0.5059
  254SOL     OW 1013   0.958   1.136   2.225  0.2606  0.5898 -0.0750
  254SOL    HW1 1014   0.940   1.038   2.225 -0.6486 -0.0485 -0.4596
  254SOL    HW2 1015   0.889   1.159   2.294 -1.2374 -2.8565  1.5883
  254SOL     MW 1016   0.946   1.126   2.234 -0.0570  0.0509  0.0937
  255SOL     OW 1017   0.842   2.568   2.118  0.1651 -0.2347  0.3077
  255SOL    HW1 1018   0.761   2.522   2.113  1.1947  2.6676 -0.6897
  255SOL    HW2 1019   0.923   2.519   2.126 -2.6240  4.0396 -1.1276
  255SOL     MW 1020   0.842   2.555   2.118 -0.0670  0.7122 -0.0133
  256SOL     OW 1021   1.250   2.763   2.995  0.9706 -0.0330  0.0322
  256SOL    HW1 1022   1.249   2.673   3.030 -0.9317  0.4348 -0.5129
  256SOL    HW2 1023   1.320   2.757   2.924  2.9233 -0.2147 -0.1637
  256SOL     MW 1024   1.259   2.750   2.990  0.9773  0.0048 -0.0655
  257SOL     OW 1025   0.028   1.876   0.118  0.6305 -0.0376  0.1431
  257SOL    HW1 1026   0.112   1.908   0.139 -1.6104 -0.1600 -0.7478
  257SOL    HW2 1027   0.021   1.860   0.021 -1.0224 -1.3412 -0.6835
  257SOL     MW 1028   0.038   1.878   0.108  0.1168 -0.2258 -0.0835
  258SOL     OW 1029   0.666   1.002   2.476  0.6402  0.1105  0.4658
  258SOL    HW1 1030   0.662   1.086   2.438 -1.3552 -3.5073 -0.1166
  258SOL    HW2 1031   0.606   0.990   2.549  0.4128  0.6860  0.6112
  258SOL     MW 1032   0.657   1.012   2.481  0.3469 -0.2909  0.4081
  259SOL     OW 1033   0.841   0.483   2.250  0.1223 -0.5254 -0.4041
  259SOL    HW1 1034   0.767   0.426   2.232 -0.9759 -3.0973  0.6819
  259SOL    HW2 1035   0.918   0.428   2.265 -0.3586 -1.3141 -2.9200
  259SOL     MW 1036   0.841   0.468   2.250 -0.0860 -0.9688 -0.5927
  260SOL     OW 1037   0.652   0.144   1.587 -0.2507  0.4187  0.4073
  260SOL    HW1 1038   0.593   0.197   1.541  0.4777  1.2559  1.4303
  260SOL    HW2 1039   0.719   0.124   1.525 -0.5214  1.2232 -0.0442
  260SOL     MW 1040   0.653   0.149   1.573 -0.1903  0.6353  0.4827
  261SOL     OW 1041   1.046   0.717   1.987  0.2371  0.5380 -0.1944
  261SOL    HW1 1042   1.087   0.690   2.067 -0.0934  1.7171 -2.6106
  261SOL    HW2 1043   1.003   0.639   1.957  0.4385  0.0089 -2.5598
  261SOL     MW 1044   1.046   0.703   1.994  0.2201  0.6238 -0.8253
  262SOL     OW 1045   1.142   0.385   0.102 -0.0954 -0.6602  0.1932
  262SOL    HW1 1046   1.240   0.398   0.108  1.8363 -2.0893 -0.9602
  262SOL    HW2 1047   1.131   0.298   0.060 -0.2929 -0.9493  0.8206
  262SOL     MW 1048   1.153   0.375   0.097  0.1334 -0.8869  0.1238
  263SOL     OW 1049   0.384   0.023   2.544  0.2596  0.3322  0.2620
  263SOL    HW1 1050   0.301   0.063   2.556  2.1917 -1.9631 -0.3766
  263SOL    HW2 1051   0.428   0.053   2.463 -0.1645 -1.6230  1.5644
  263SOL     MW 1052   0.379   0.032   2.535  0.4586 -0.2286  0.3496
  264SOL     OW 1053   1.527   1.467   1.919  0.4989  0.5867 -0.6383
  264SOL    HW1 1054   1.505   1.372   1.916  2.2600  0.1911 -1.5870
  264SOL    HW2 1055   1.597   1.476   1.978 -5.0165  2.6220  1.7878
  264SOL     MW 1056   1.533   1.455   1.926  0.0035  0.8030 -0.4434
  265SOL     OW 1057   0.721   2.835   2.281 -0.1374 -0.0496  0.2591
  265SOL    HW1 1058   0.796   2.790   2.234  1.1845  5.4510 -1.3635
  265SOL    HW2 1059   0.730   2.812   2.375  0.0413  0.6167  1.1061
  265SOL     MW 1060   0.732   2.826   2.287  0.0606  0.7640  0.1568
  266SOL     OW 1061   0.829   0.884   2.158 -0.6114  0.1457  0.2008
  266SOL    HW1 1062   0.802   0.941   2.085  0.3984 -1.3045 -1.5463
  266SOL    HW2 1063   0.878   0.817   2.118  1.9700 -2.6107 -1.0859
  266SOL     MW 1064   0.832   0.882   2.143 -0.1376 -0.4093 -0.1995
  267SOL     OW 1065   1.371   1.675   2.668  0.0458  0.2138  0.0050
  267SOL    HW1 1066   1.447   1.655   2.617  1.0459 -1.6117 -2.2889
  267SOL    HW2 1067   1.298   1.675   2.606  0.7757 -0.0188  2.2356
  267SOL     MW 1068   1.371   1.672   2.653  0.2741 -0.0577 -0.0034
  268SOL     OW 1069   0.131   0.899   1.771 -0.7477  0.2030  0.1770
  268SOL    HW1 1070   0.096   0.982   1.730  0.2541  2.9944  0.0560
  268SOL    HW2 1071   0.085   0.839   1.711  0.4111 -3.0251  1.1208
  268SOL     MW 1072   0.120   0.902   1.757 -0.4627  0.1454  0.2856
  269SOL     OW 1073   1.310   1.897   2.292  0.4264  0.1007 -0.1531
  269SOL    HW1 1074   1.329   1.980   2.331  1.6485 -0.5970 -0.6937
  269SOL    HW2 1075   1.246   1.859   2.355  0.8276  0.3092 -0.1483
  269SOL     MW 1076   1.304   1.903   2.305  0.6406  0.0361 -0.2238
  270SOL     OW 1077   1.099   0.367   1.541 -0.6794  0.2484 -0.5461
  270SOL    HW1 1078   1.087   0.299   1.607 -0.2051  0.3526  0.8353
  270SOL    HW2 1079   1.195   0.383   1.541 -1.9299 -0.5554 -1.2176
  270SOL     MW 1080   1.110   0.360   1.550 -0.7818  0.1561 -0.4524
  271SOL     OW 1081   0.904   0.130   2.485  0.1234 -0.3779 -0.2779
  271SOL    HW1 1082   0.978   0.084   2.522  1.3290  0.3920 -0.8278
  271SOL    HW2 1083   0.945   0.203   2.433  0.0594 -0.8114  3.7447
  271SOL     MW 1084   0.919   0.133   2.483  0.2740 -0.3335  0.1803
  272SOL     OW 1085   1.478   2.786   2.818  0.1891  0.4819  0.1168
  272SOL    HW1 1086   1.425   2.801   2.741  0.6330 -1.1070  1.4169
  272SOL    HW2 1087   1.523   2.869   2.839 -1.2950 -1.1398  0.2038
  272SOL     MW 1088   1.477   2.799   2.811  0.0519  0.0583  0.2998
  273SOL     OW 1089   1.430   0.818   2.785  0.2664  0.2253  0.8259
  273SOL    HW1 1090   1.517   0.775   2.791  1.4643  0.0608  0.4828
  273SOL    HW2 1091   1.436   0.904   2.818 -0.0336 -1.4596 -0.4661
  273SOL     MW 1092   1.442   0.824   2.790  0.3849 -0.0187  0.6101
  274SOL     OW 1093   1.444   0.650   0.135 -0.3382 -0.5306 -0.1781
  274SOL    HW1 1094   1.500   0.600   0.196  1.3439 -0.3986 -1.7375
  274SOL    HW2 1095   1.361   0.672   0.182  0.8479  0.8658  0.2920
  274SOL     MW 1096   1.441   0.646   0.149  0.0402 -0.3290 -0.3218
  275SOL     OW 1097   1.814   0.537   1.742  0.2602 -0.3051 -0.0741
  275SOL    HW1 1098   1.872   0.559   1.820  1.3125 -0.0949  1.2327
  275SOL    HW2 1099   1.808   0.439   1.748  0.2109 -1.9626  0.9377
  275SOL     MW 1100   1.821   0.527   1.753  0.3925 -0.4960  0.2318
  276SOL     OW 1101   0.428   1.202   1.934 -0.1408  0.2634  0.2680
  276SOL    HW1 1102   0.413   1.103   1.941 -2.6712 -1.5126  0.0210
  276SOL    HW2 1103   0.349   1.241   1.986 -1.0393  0.4696  2.8134
  276SOL     MW 1104   0.415   1.194   1.942 -0.5932  0.0562  0.5712
  277SOL     OW 1105   1.964   1.125   2.437 -0.3429  0.3296 -0.1372
  277SOL    HW1 1106   2.022   1.197   2.467  0.4684 -0.5780  3.4280
  277SOL    HW2 1107   1.937   1.140   2.348  3.1217  3.7467 -0.4130
  277SOL     MW 1108   1.968   1.136   2.430  0.2213  0.6607  0.2968
  278SOL     OW 1109   1.401   0.624   1.693 -0.4836 -0.2307 -0.5936
  278SOL    HW1 1110   1.388   0.591   1.780 -0.7998 -0.1840  1.0603
  278SOL    HW2 1111   1.491   0.631   1.672 -1.0253  1.0806  0.0764
  278SOL     MW 1112   1.411   0.620   1.702 -0.5968 -0.0516 -0.2870
  279SOL     OW 1113   0.512   0.102   2.271 -0.1269  0.2829 -0.7436
  279SOL    HW1 1114   0.603   0.063   2.285  0.5537 -0.8725  3.1012
  279SOL    HW2 1115   0.543   0.176   2.218  0.5371  1.6667  1.8546
  279SOL     MW 1116   0.528   0.106   2.266  0.0505  0.3130  0.1065
  280SOL     OW 1117   1.460   1.068   2.223 -0.0774 -0.3574  0.2447
  280SOL    HW1 1118   1.503   0.998   2.180 -1.4899  0.1501  1.5450
  280SOL    HW2 1119   1.450   1.051   2.319  1.2999 -0.5498  0.4308
  280SOL     MW 1120   1.465   1.057   2.230 -0.0821 -0.3158  0.4408
  281SOL     OW 1121   1.319   1.151   2.734 -0.5478 -0.3096 -0.1187
  281SOL    HW1 1122   1.402   1.200   2.716 -2.9265  2.1306  0.6041
  281SOL    HW2 1123   1.310   1.149   2.830  1.7110 -1.1893  1.2733
  281SOL     MW 1124   1.328   1.157   2.744 -0.5636 -0.1037  0.1604
  282SOL     OW 1125   1.183   1.256   1.596  0.1576  0.0064  0.1910
  282SOL    HW1 1126   1.192   1.342   1.570  1.2257 -1.6101  0.9128
  282SOL    HW2 1127   1.103   1.254   1.659 -3.5957 -0.7859  1.3447
  282SOL     MW 1128   1.173   1.267   1.601 -0.1967 -0.3115  0.4385
  283SOL     OW 1129   0.811   1.391   3.098 -0.0349  0.0024 -0.0221
  283SOL    HW1 1130   0.907   1.384   3.093  0.8190 -2.3303  0.3754
  283SOL    HW2 1131   0.793   1.483   3.096 -1.8865 -1.1245  0.2778
  283SOL     MW 1132   0.821   1.402   3.097 -0.1665 -0.4541  0.0699
  284SOL     OW 1133   0.384   0.699   2.310 -0.2579 -0.1226 -0.1035
  284SOL    HW1 1134   0.452   0.756   2.258  0.9703 -0.4361 -0.7717
  284SOL    HW2 1135   0.396   0.612   2.261  1.8207 -1.5415 -1.9999
  284SOL     MW 1136   0.394   0.695   2.297  0.1784 -0.3512 -0.4419
  285SOL     OW 1137   0.883   0.820   2.869 -0.0805 -0.2113 -0.4134
  285SOL    HW1 1138   0.886   0.861   2.782 -0.3564  0.7604 -0.6764
  285SOL    HW2 1139   0.800   0.787   2.885 -1.3095  1.7294 -1.3552
  285SOL     MW 1140   0.873   0.821   2.860 -0.2791  0.1730 -0.5723
  286SOL     OW 1141   1.106   1.465   2.650 -0.1848  0.5672  0.7620
  286SOL    HW1 1142   1.176   1.414   2.607  0.7556 -1.5760 -0.8194
  286SOL    HW2 1143   1.090   1.534   2.588 -2.2999 -2.7181  1.5995
  286SOL     MW 1144   1.113   1.468   2.636 -0.3398 -0.1490  0.6639
  287SOL     OW 1145   1.166   0.971   0.360 -0.6560 -0.0105 -0.1895
  287SOL    HW1 1146   1.114   0.986   0.436 -0.5517 -1.4476  0.6830
  287SOL    HW2 1147   1.120   1.029   0.289  0.3638 -1.6342 -2.8796
  287SOL     MW 1148   1.153   0.981   0.360 -0.5077 -0.4144 -0.4293
  288SOL     OW 1149   1.478   0.612   2.148  0.7985 -0.0523  0.5209
  288SOL    HW1 1150   1.454   0.596   2.246  0.2789  0.9925  0.0788
  288SOL    HW2 1151   1.485   0.700   2.121  0.4858 -1.5340 -2.1414
  288SOL     MW 1152   1.475   0.621   2.158  0.6887 -0.1099  0.1113
  289SOL     OW 1153   0.898   0.952   2.607 -0.8111 -0.0551  0.2853
  289SOL    HW1 1154   0.954   0.891   2.566  1.5272  1.4092 -1.1299
  289SOL    HW2 1155   0.823   0.964   2.546  3.5224  0.8117  0.4866
  289SOL     MW 1156   0.896   0.945   2.593  0.0692  0.2525  0.1251
  290SOL     OW 1157   0.761   0.652   1.475 -0.0544 -0.0426  0.1231
  290SOL    HW1 1158   0.823   0.599   1.426  1.1469 -0.1592  1.5303
  290SOL    HW2 1159   0.794   0.654   1.566 -3.4762 -0.0068  0.9451
  290SOL     MW 1160   0.773   0.645   1.481 -0.3474 -0.0532  0.4172
  291SOL     OW 1161   0.241   0.334   0.136 -0.0747  0.0562  0.0274
  291SOL    HW1 1162   0.333   0.317   0.167 -0.2828  0.3579  1.2825
  291SOL    HW2 1163   0.213   0.245   0.116 -0.4583 -0.9392  1.8315
  291SOL     MW 1164   0.249   0.320   0.138 -0.1527 -0.0354  0.4311
  292SOL     OW 1165   1.025   0.628   0.110 -0.3340  0.2559  0.1243
  292SOL    HW1 1166   1.081   0.689   0.158  2.1010  0.1082 -1.0706
  292SOL    HW2 1167   1.072   0.539   0.119  1.9693  1.7051 -1.1823
  292SOL     MW 1168   1.039   0.624   0.118  0.2912  0.4276 -0.2057
  293SOL     OW 1169   0.103   0.073   2.576  0.2670 -0.5281  0.5605
  293SOL    HW1 1170   0.086   0.039   2.488  2.4573  2.1075  1.2840
  293SOL    HW2 1171   0.016   0.109   2.605 -0.8553  0.2763  0.1141
  293SOL     MW 1172   0.089   0.074   2.568  0.4079 -0.0742  0.5971
  294SOL     OW 1173   1.354   0.462   2.342  0.2579  0.0050 -0.0285
  294SOL    HW1 1174   1.368   0.540   2.396  1.5316 -0.0261  2.7325
  294SOL    HW2 1175   1.289   0.416   2.389  1.1324 -1.3941  0.5702
  294SOL     MW 1176   1.347   0.466   2.355  0.5413 -0.1837  0.4148
  295SOL     OW 1177   0.838   0.605   2.545  0.0250 -0.3171 -0.1926
  295SOL    HW1 1178   0.812   0.570   2.456 -1.7295  0.1140 -1.8482
  295SOL    HW2 1179   0.768   0.663   2.583  0.9290 -1.5997  0.2674
  295SOL     MW 1180   0.825   0.608   2.538 -0.0872 -0.4294 -0.3503
  296SOL     OW 1181   1.302   0.290   2.060  0.5435  0.4906  0.1251
  296SOL    HW1 1182   1.372   0.225   2.072  0.0250 -0.8618  0.9947
  296SOL    HW2 1183   1.304   0.342   2.143  2.1374  0.0364  0.0587
  296SOL     MW 1184   1.311   0.288   2.073  0.6854  0.2523  0.2311
  297SOL     OW 1185   1.364   0.371   1.607  0.4049 -0.2515 -0.0025
  297SOL    HW1 1186   1.376   0.455   1.646 -1.7925 -0.5446  1.4522
  297SOL    HW2 1187   1.390   0.312   1.679 -2.8473 -1.3195  0.3084
  297SOL     MW 1188   1.369   0.374   1.622 -0.3141 -0.4311  0.2305
  298SOL     OW 1189   1.587   0.869   2.070  0.2702 -0.0528 -0.5946
  298SOL    HW1 1190   1.620   0.920   1.990 -0.7355 -0.0307 -0.4118
  298SOL    HW2 1191   1.668   0.833   2.109 -1.5864 -0.0467 -2.2876
  298SOL     MW 1192   1.602   0.871   2.064 -0.1075 -0.0491 -0.7938
  299SOL     OW 1193   0.594   1.191   0.103  0.2734  0.2767  0.1797
  299SOL    HW1 1194   0.592   1.184   0.006  2.3753  2.2636 -1.1623
  299SOL    HW2 1195   0.680   1.232   0.116  0.3949 -1.7668 -0.7917
  299SOL     MW 1196   0.605   1.196   0.092  0.5667  0.2693 -0.1255
  300SOL     OW 1197   1.099   1.150   2.548  0.3591 -0.3393  0.0910
  300SOL    HW1 1198   1.027   1.094   2.572  0.7068 -1.1642 -0.1754
  300SOL    HW2 1199   1.166   1.150   2.623  0.1171 -0.4518 -0.1914
  300SOL     MW 1200   1.099   1.143   2.561  0.3731 -0.4630  0.0186
  301SOL     OW 1201   1.470   1.071   0.739  0.1418  0.2361 -0.3365
  301SOL    HW1 1202   1.486   1.102   0.829  0.2904 -0.2542 -0.1042
  301SOL    HW2 1203   1.391   1.008   0.740  0.1217 -1.9113 -1.8678
  301SOL     MW 1204   1.462   1.067   0.751  0.1588 -0.1119 -0.5079
  302SOL     OW 1205   0.168   1.595   2.033  0.2322 -0.2102  0.1113
  302SOL    HW1 1206   0.156   1.505   2.058 -1.4146  3.2067 -0.1590
  302SOL    HW2 1207   0.076   1.624   2.039 -0.6495 -1.3378 -0.6340
  302SOL     MW 1208   0.155   1.587   2.037 -0.1014  0.0918 -0.0227
  303SOL     OW 1209   0.322   1.776   2.672  0.1344 -0.1017  0.8799
  303SOL    HW1 1210   0.287   1.809   2.590 -2.3705  2.3045  0.7540
  303SOL    HW2 1211   0.249   1.773   2.731 -0.0440 -1.0979 -1.8313
  303SOL     MW 1212   0.308   1.780   2.669 -0.2197  0.0843  0.5056
  304SOL     OW 1213   0.504   2.054   2.483 -0.1439 -0.1614  0.2818
  304SOL    HW1 1214   0.581   2.109   2.453  1.6952  2.7715 -0.8784
  304SOL    HW2 1215   0.543   1.968   2.488  2.7166  1.7664  0.9295
  304SOL     MW 1216   0.520   2.050   2.479  0.4762  0.4799  0.2142
  305SOL     OW 1217   1.141   0.658   0.545  0.1465 -0.1926  0.1425
  305SOL    HW1 1218   1.049   0.654   0.549 -0.9622  0.6679  0.1192
  305SOL    HW2 1219   1.171   0.564   0.550  3.5306 -1.9185  1.6809
  305SOL     MW 1220   1.133   0.645   0.546  0.4467 -0.3068  0.3424
  306SOL     OW 1221   1.092   1.525   0.297  0.0033 -0.0820  0.4994
  306SOL    HW1 1222   1.141   1.450   0.336 -0.7558  1.2487  0.8642
  306SOL    HW2 1223   1.144   1.555   0.221 -1.8856  1.7996 -0.0532
  306SOL     MW 1224   1.105   1.519   0.292 -0.3461  0.3418  0.4747
  307SOL     OW 1225   1.421   0.484   1.921  0.6350  0.1875  0.2280
  307SOL    HW1 1226   1.372   0.409   1.961 -0.5645  0.2661 -1.5196
  307SOL    HW2 1227   1.459   0.522   2.000 -0.6274 -0.3300  1.7181
  307SOL     MW 1228   1.419   0.479   1.937  0.3102  0.1296  0.1940
  308SOL     OW 1229   2.208   0.509   2.708  0.3537  0.5910  0.3916
  308SOL    HW1 1230   2.295   0.550   2.722 -0.2085 -1.6897  3.2928
  308SOL    HW2 1231   2.151   0.587   2.707 -0.7074 -3.0557  1.7355
  308SOL     MW 1232   2.212   0.524   2.710  0.1395 -0.1911  0.9517
  309SOL     OW 1233   0.510   0.567   0.243  0.3076 -0.0244 -0.0774
  309SOL    HW1 1234   0.593   0.612   0.239 -0.5461 -0.4651 -0.9032
  309SOL    HW2 1235   0.520   0.479   0.210 -1.9194  1.7320  0.7099
  309SOL     MW 1236   0.522   0.562   0.238 -0.0989  0.1492 -0.0825
  310SOL     OW 1237   0.413   0.570   1.884 -0.6173 -0.8543 -0.0101
  310SOL    HW1 1238   0.469   0.499   1.845  0.4597  0.0272 -1.3471
  310SOL    HW2 1239   0.458   0.653   1.854  0.1445  1.9105 -0.5860
  310SOL     MW 1240   0.427   0.572   1.875 -0.3747 -0.3732 -0.2625
  311SOL     OW 1241   1.967   0.632   1.955 -0.3266  0.6353 -0.0154
  311SOL    HW1 1242   1.931   0.673   2.033  2.3224 -0.2238 -1.4727
  311SOL    HW2 1243   2.034   0.568   1.994 -0.0182 -2.1617 -0.2101
  311SOL     MW 1244   1.971   0.629   1.971  0.0636  0.1529 -0.2334
  312SOL     OW 1245   1.729   2.442   0.114 -0.4136  0.2586  0.6162
  312SOL    HW1 1246   1.714   2.391   0.195  0.3606 -0.0211  0.3207
  312SOL    HW2 1247   1.674   2.521   0.133  1.8296  1.4854  0.1273
  312SOL     MW 1248   1.719   2.445   0.127 -0.0155  0.3835  0.5127
  313SOL     OW 1249   0.138   1.123   3.034 -0.0641  0.1710  0.0529
  313SOL    HW1 1250   0.091   1.165   3.112  1.2255  0.5238  1.2270
  313SOL    HW2 1251   0.148   1.194   2.976 -0.4918 -2.6387  0.0395
  313SOL     MW 1252   0.133   1.138   3.037  0.0496 -0.1532  0.2060
  314SOL     OW 1253   2.162   2.956   0.028  0.2368  0.0756  0.7197
  314SOL    HW1 1254   2.096   2.963  -0.048  3.3532 -0.0695  0.3504
  314SOL    HW2 1255   2.214   3.048   0.027  0.4353  4.1849 -1.8145
  314SOL     MW 1256   2.160   2.969   0.018  0.6742  0.5986  0.3366
  315SOL     OW 1257   1.537   1.843   2.966  0.0916  0.1656  0.3857
  315SOL    HW1 1258   1.519   1.889   3.047 -2.6148  0.0553 -2.1853
  315SOL    HW2 1259   1.579   1.925   2.929  0.1200 -0.0038  0.3629
  315SOL     MW 1260   1.540   1.860   2.972 -0.2617  0.1287  0.0435
  316SOL     OW 1261   1.205   0.645   2.709  0.2716  0.1114  0.0150
  316SOL    HW1 1262   1.270   0.706   2.749 -0.9351 -1.1809 -0.3835
  316SOL    HW2 1263   1.141   0.614   2.784 -0.9105 -0.0149 -0.5258
  316SOL     MW 1264   1.205   0.649   2.724 -0.0436 -0.0757 -0.1089
  317SOL     OW 1265   0.691   1.573   2.639 -0.0278  0.6008 -0.0873
  317SOL    HW1 1266   0.741   1.491   2.641  2.5199 -1.1030  3.1831
  317SOL    HW2 1267   0.710   1.611   2.550  0.2603 -0.1061  1.3771
  317SOL     MW 1268   0.700   1.567   2.627  0.3463  0.2827  0.5374
  318SOL     OW 1269   1.346   0.373   2.944  0.0784 -0.2142 -0.2392
  318SOL    HW1 1270   1.280   0.436   2.962 -0.4514  1.9358 -2.3055
  318SOL    HW2 1271   1.416   0.434   2.904  3.1435 -1.0504 -0.9078
  318SOL     MW 1272   1.346   0.389   2.941  0.4129 -0.0408 -0.6000
  319SOL     OW 1273   0.787   0.434   2.831 -0.1180  0.4545  0.3179
  319SOL    HW1 1274   0.779   0.352   2.782  0.6988 -2.5522  1.8289
  319SOL    HW2 1275   0.736   0.422   2.910  3.8137  1.6783 -2.3318
  319SOL     MW 1276   0.780   0.422   2.835  0.5086  0.2193  0.1677
  320SOL     OW 1277   1.055   1.347   1.967 -0.2770 -0.4403  0.3975
  320SOL    HW1 1278   1.112   1.269   1.984  0.6810 -0.6940 -2.1621
  320SOL    HW2 1279   1.119   1.413   1.936  0.9763 -2.6033  0.0414
  320SOL     MW 1280   1.071   1.345   1.966  0.0148 -0.7591  0.0128
  321SOL     OW 1281   1.077   0.898   3.049 -0.0800 -0.8293 -0.1757
  321SOL    HW1 1282   1.005   0.861   2.993 -1.9782  0.2222  0.2649
  321SOL    HW2 1283   1.143   0.825   3.053 -0.0360  1.7496  2.9636
  321SOL     MW 1284   1.076   0.883   3.043 -0.3246 -0.3503  0.2967
  322SOL     OW 1285   1.256   0.840   1.665 -0.0595 -0.0043  0.0151
  322SOL    HW1 1286   1.289   0.759   1.695  0.0386  0.1531 -2.2943
  322SOL    HW2 1287   1.213   0.880   1.741  2.3931 -1.3934  0.7372
  322SOL     MW 1288   1.255   0.835   1.679  0.2771 -0.1668 -0.1944
  323SOL     OW 1289   1.235   1.547   1.909 -0.3609 -0.2710  0.1763
  323SOL    HW1 1290   1.284   1.517   1.833  2.1371 -0.5322  0.5004
  323SOL    HW2 1291   1.182   1.619   1.880 -0.8197 -2.3105 -1.7850
  323SOL     MW 1292   1.234   1.552   1.895 -0.0918 -0.5745 -0.0397
  324SOL     OW 1293   1.448   1.010   2.493 -0.6453 -0.2037  0.5838
  324SOL    HW1 1294   1.388   1.049   2.570  1.3405 -1.5282  2.0020
  324SOL    HW2 1295   1.541   1.027   2.510  0.3760  0.6054  0.9045
  324SOL     MW 1296   1.452   1.018   2.505 -0.2485 -0.2717  0.8132
  325SOL     OW 1297   1.038   0.534   2.900 -0.0986 -0.2243 -0.0107
  325SOL    HW1 1298   1.042   0.583   2.987 -1.0031  0.4948  0.5681
  325SOL    HW2 1299   0.944   0.520   2.887 -1.8155  1.9823 -0.9813
  325SOL     MW 1300   1.026   0.539   2.910 -0.4445  0.1618 -0.0624
  326SOL     OW 1301   0.364   1.401   2.287  0.5121 -0.5044  0.0458
  326SOL    HW1 1302   0.440   1.381   2.227  0.7826 -0.2170 -1.2238
  326SOL    HW2 1303   0.353   1.494   2.275  1.2828  2.5165 -2.3332
  326SOL     MW 1304   0.373   1.410   2.278  0.6495 -0.0679 -0.4356
  327SOL     OW 1305   1.974   0.804   2.419  0.5417 -0.5494  0.1646
  327SOL    HW1 1306   1.945   0.775   2.509 -1.8815  2.8481  1.0814
  327SOL    HW2 1307   1.992   0.898   2.413  1.6911  1.1976 -0.5780
  327SOL     MW 1308   1.972   0.812   2.430  0.3736  0.1293  0.1876
  328SOL     OW 1309   0.226   1.299   2.070  0.2428  0.1146  0.8282
  328SOL    HW1 1310   0.152   1.236   2.066 -0.7821 -2.3217 -1.2005
  328SOL    HW2 1311   0.257   1.318   2.159  2.7177  0.6298  1.8817
  328SOL     MW 1312   0.220   1.293   2.081  0.4341 -0.1388  0.6995
  329SOL     OW 1313   0.037   0.115   1.378  0.5993 -0.0486 -0.7485
  329SOL    HW1 1314   0.014   0.117   1.471  1.0278  1.9257  1.3162
  329SOL    HW2 1315   0.127   0.151   1.374 -3.0390  0.3812 -0.0109
  329SOL     MW 1316   0.046   0.120   1.390  0.1758  0.2686 -0.3787
  330SOL     OW 1317   0.387   0.010   2.038 -0.1108  0.2889 -0.2780
  330SOL    HW1 1318   0.429   0.026   2.123 -1.9610  1.0976  0.0472
  330SOL    HW2 1319   0.328  -0.066   2.058 -0.2521  0.7195  1.2570
  330SOL     MW 1320   0.384   0.002   2.052 -0.3735  0.4524 -0.0326
  331SOL     OW 1321   0.785   1.248   2.390 -0.1064  0.2639 -0.6911
  331SOL    HW1 1322   0.726   1.298   2.334  1.3041  0.5882  3.2355
  331SOL    HW2 1323   0.813   1.297   2.471  1.1650  1.7313 -2.0745
  331SOL     MW 1324   0.781   1.261   2.393  0.2474  0.5003 -0.3556
  332SOL     OW 1325   1.359   1.637   2.935  0.4700  0.3305  0.0651
  332SOL    HW1 1326   1.374   1.627   2.840 -0.9134 -0.4718 -2.0309
  332SOL    HW2 1327   1.421   1.711   2.960  0.1692 -0.1117 -0.9106
  332SOL     MW 1328   1.369   1.646   2.926  0.2478  0.1663 -0.3402
  333SOL     OW 1329   1.669   1.330   2.932 -0.3420  0.4195 -0.5180
  333SOL    HW1 1330   1.764   1.305   2.917  0.4823 -1.5075  0.4102
  333SOL    HW2 1331   1.631   1.264   2.985  1.0352  0.4985 -4.1215
  333SOL     MW 1332   1.677   1.318   2.937 -0.0516  0.1757 -0.8710
  334SOL     OW 1333   1.316   0.012   2.606  0.5136 -0.6887  0.7327
  334SOL    HW1 1334   1.242  -0.015   2.667  1.1573 -0.6860  0.5375
  334SOL    HW2 1335   1.384   0.053   2.661 -1.6842  1.2751 -1.3842
  334SOL     MW 1336   1.315   0.014   2.621  0.3086 -0.4292  0.4277
  335SOL     OW 1337   1.306   0.708   3.006  0.2338  0.7683 -0.7902
  335SOL    HW1 1338   1.352   0.661   3.071 -2.9673 -1.2607  2.3154
  335SOL    HW2 1339   1.359   0.749   2.941 -2.4613 -2.7173  0.3730
  335SOL     MW 1340   1.319   0.707   3.006 -0.5441  0.0407 -0.2270
  336SOL     OW 1341   0.956   1.170   1.718 -0.5723  0.4439  0.2605
  336SOL    HW1 1342   0.890   1.222   1.763  0.5411 -1.8898 -3.5750
  336SOL    HW2 1343   0.994   1.100   1.777  0.9297 -1.0476  0.9809
  336SOL     MW 1344   0.953   1.168   1.732 -0.2272 -0.0608 -0.1505
  337SOL     OW 1345   0.530   1.934   2.804 -1.0192  0.6650 -0.7599
  337SOL    HW1 1346   0.476   1.891   2.736 -1.9200 -1.1535  0.3428
  337SOL    HW2 1347   0.619   1.890   2.794  0.0231 -1.7289 -0.1659
  337SOL     MW 1348   0.535   1.923   2.794 -1.0005  0.1092 -0.5360
  338SOL     OW 1349   1.067   0.765   2.459  0.1626  0.6289 -0.5649
  338SOL    HW1 1350   0.992   0.706   2.484 -0.7380 -0.3610 -1.6896
  338SOL    HW2 1351   1.132   0.738   2.529 -0.8295  1.1088 -0.9898
  338SOL     MW 1352   1.066   0.754   2.471 -0.0871  0.5616 -0.7694
  339SOL     OW 1353   1.425   1.217   1.879 -0.5865  0.4873  0.6007
  339SOL    HW1 1354   1.403   1.173   1.796  1.3416 -1.8769  2.6831
  339SOL    HW2 1355   1.383   1.166   1.944  1.3193 -1.0510  0.2154
  339SOL     MW 1356   1.417   1.205   1.876 -0.0806 -0.0276  0.8246
  340SOL     OW 1357   1.272   1.510   0.066  0.6135 -0.4710 -0.1682
  340SOL    HW1 1358   1.302   1.550  -0.019  4.0823  1.0019 -0.5205
  340SOL    HW2 1359   1.351   1.462   0.095 -1.9164  2.6427  2.7342
  340SOL     MW 1360   1.286   1.509   0.059  0.7374  0.1341  0.1682
  341SOL     OW 1361   0.127   1.376   2.804  0.5952 -0.4085 -0.7586
  341SOL    HW1 1362   0.219   1.362   2.837 -0.6124  1.1049 -1.0195
  341SOL    HW2 1363   0.131   1.339   2.720 -2.2376  1.2300  0.6083
  341SOL     MW 1364   0.140   1.369   2.797  0.0621  0.0074 -0.6126
  342SOL     OW 1365   1.440   0.313   0.091  0.2238  0.7590 -0.3849
  342SOL    HW1 1366   1.503   0.376   0.131  1.2921  3.2141  0.9930
  342SOL    HW2 1367   1.416   0.345   0.003 -2.8791 -2.3786 -0.2591
  342SOL     MW 1368   1.445   0.326   0.085 -0.0446  0.6689 -0.1865
  343SOL     OW 1369   0.225   0.271   2.158  0.3846 -0.3856 -0.3446
  343SOL    HW1 1370   0.285   0.199   2.155  0.8923  3.1468 -1.5393
  343SOL    HW2 1371   0.151   0.243   2.111 -0.0438  0.5201  0.5658
  343SOL     MW 1372   0.223   0.258   2.152  0.3951  0.1999 -0.3821
  344SOL     OW 1373   1.691   1.978   0.119 -0.1252 -0.0154 -0.1001
  344SOL    HW1 1374   1.734   2.059   0.075  2.4945 -0.0169 -2.1033
  344SOL    HW2 1375   1.602   1.982   0.117  0.6250  0.7630  3.5413
  344SOL     MW 1376   1.685   1.989   0.113  0.3195  0.0871  0.1160
  345SOL     OW 1377   0.690   1.615   2.367  0.1090  0.7029  0.4383
  345SOL    HW1 1378   0.604   1.595   2.327  1.7200  2.2089 -2.1747
  345SOL    HW2 1379   0.753   1.589   2.303  0.8431  3.2170  2.1835
  345SOL     MW 1380   0.687   1.609   2.353  0.4184  1.2333  0.3238
  346SOL     OW 1381   1.644   1.114   0.016  0.0598 -0.3593  0.9653
  346SOL    HW1 1382   1.738   1.130   0.014 -3.0793  0.4105 -2.4899
  346SOL    HW2 1383   1.628   1.052   0.086 -1.3522 -3.7362  0.8535
  346SOL     MW 1384   1.654   1.108   0.025 -0.5407 -0.7033  0.4947
  347SOL     OW 1385   1.149   0.644   2.234  0.1348 -0.7270 -0.0990
  347SOL    HW1 1386   1.221   0.593   2.260 -0.1326 -0.7279  1.5080
  347SOL    HW2 1387   1.117   0.699   2.307  0.8122  1.0100 -0.1642
  347SOL     MW 1388   1.155   0.645   2.247  0.1889 -0.4979  0.1044
  348SOL     OW 1389   1.337   2.548   1.912 -0.2111 -0.1999  0.3907
  348SOL    HW1 1390   1.348   2.482   1.983  0.3467  0.5102 -1.8748
  348SOL    HW2 1391   1.315   2.632   1.962  1.6389 -1.0414 -0.2844
  348SOL     MW 1392   1.336   2.550   1.928  0.1066 -0.2172  0.0027
  349SOL     OW 1393   1.473   0.157   2.789  0.3894 -0.2148  0.1465
  349SOL    HW1 1394   1.446   0.219   2.855  3.4059  0.5614 -2.6141
  349SOL    HW2 1395   1.526   0.077   2.819  0.7509 -1.7555  3.0785
  349SOL     MW 1396   1.476   0.154   2.801  0.8351 -0.3157  0.1691
  350SOL     OW 1397   1.836   0.664   2.630 -0.7223 -0.1716 -0.1336
  350SOL    HW1 1398   1.775   0.616   2.568  0.2860 -0.6194 -0.1191
  350SOL    HW2 1399   1.897   0.610   2.674  0.7799  0.0446  1.6170
  350SOL     MW 1400   1.836   0.651   2.627 -0.3910 -0.2022  0.0993
  351SOL     OW 1401   0.099   1.133   1.623 -0.3034  0.3138 -0.1887
  351SOL    HW1 1402   0.024   1.123   1.687 -1.5879  3.1892 -0.5542
  351SOL    HW2 1403   0.158   1.196   1.659 -0.9247  0.3472 -2.7209
  351SOL     MW 1404   0.097   1.140   1.636 -0.5549  0.6976 -0.5710
  352SOL     OW 1405   0.763   1.795   2.795 -0.3354  0.1118 -0.2422
  352SOL    HW1 1406   0.785   1.781   2.890 -0.8711  1.0738  0.0181
  352SOL    HW2 1407   0.746   1.710   2.751  0.1445 -2.3024 -1.2408
  352SOL     MW 1408   0.764   1.782   2.802 -0.3428 -0.0798 -0.3396
  353SOL     OW 1409   0.016   2.569   2.667  0.4174  0.2000 -0.5856
  353SOL    HW1 1410   0.105   2.537   2.681 -0.7336  0.0595 -0.2275
  353SOL    HW2 1411   0.023   2.641   2.603 -1.8464 -0.3542 -1.3645
  353SOL     MW 1412   0.029   2.574   2.661 -0.0332  0.1084 -0.6411
  354SOL     OW 1413   0.361   2.435   0.889  0.4820 -0.4061 -0.0725
  354SOL    HW1 1414   0.403   2.414   0.968 -1.0378 -1.5520 -0.9148
  354SOL    HW2 1415   0.315   2.364   0.860  2.3115 -1.6717 -2.5569
  354SOL     MW 1416   0.361   2.423   0.896  0.5229 -0.7243 -0.5114
  355SOL     OW 1417   0.022   2.175   0.394  0.9381  0.1505  0.0747
  355SOL    HW1 1418  -0.071   2.157   0.395 -2.2009  1.6485  0.0338
  355SOL    HW2 1419   0.031   2.226   0.477  1.5017 -0.0705  0.5171
  355SOL     MW 1420   0.011   2.179   0.405  0.5983  0.3190  0.1277
  356SOL     OW 1421   0.768   2.926   1.064 -0.5797  0.7198  0.0715
  356SOL    HW1 1422   0.847   2.929   1.008  2.3453 -0.3755  0.5733
  356SOL    HW2 1423   0.705   2.894   1.001  0.0677  1.6267  0.1291
  356SOL     MW 1424   0.770   2.922   1.048 -0.1084  0.6950  0.1453
  357SOL     OW 1425   1.843   2.822   0.480  0.0158  0.0845 -0.4530
  357SOL    HW1 1426   1.791   2.747   0.511  1.5134 -0.3573  2.0148
  357SOL    HW2 1427   1.931   2.780   0.461 -0.4860 -0.4319  0.3374
  357SOL     MW 1428   1.848   2.806   0.482  0.1472 -0.0419 -0.0232
  358SOL     OW 1429   0.418   0.164   1.055  0.1992 -0.2895  0.5193
  358SOL    HW1 1430   0.506   0.209   1.049  1.1771  1.2198  1.6828
  358SOL    HW2 1431   0.370   0.192   0.976  1.6441 -1.0688 -0.9112
  358SOL     MW 1432   0.424   0.173   1.044  0.5189 -0.1932  0.4841
  359SOL     OW 1433   0.904   2.991   1.850 -0.1410  0.1484  0.1802
  359SOL    HW1 1434   0.893   2.904   1.886  2.1442 -3.7326 -0.7520
  359SOL    HW2 1435   0.930   2.981   1.762  1.8588  0.5126 -1.4854
  359SOL     MW 1436   0.906   2.978   1.843  0.4243 -0.3156 -0.1626
  360SOL     OW 1437   0.550   2.792   0.898  0.2433 -0.0951  0.6128
  360SOL    HW1 1438   0.577   2.750   0.814 -2.0910  1.4525  0.7920
  360SOL    HW2 1439   0.541   2.723   0.967  0.5507 -0.2923  1.3504
  360SOL     MW 1440   0.552   2.777   0.896 -0.0241  0.0831  0.7338
  361SOL     OW 1441   0.249   2.690   1.373 -0.1885  0.7802 -0.3317
  361SOL    HW1 1442   0.222   2.761   1.429  1.2616 -2.2268 -0.6312
  361SOL    HW2 1443   0.340   2.713   1.367  1.4264  2.9301  0.5781
  361SOL     MW 1444   0.258   2.703   1.380  0.2159  0.6671 -0.2512
  362SOL     OW 1445   1.371   2.422   0.602 -0.3471  0.5896  0.0342
  362SOL    HW1 1446   1.404   2.362   0.665 -0.3019 -1.0333 -1.4081
  362SOL    HW2 1447   1.428   2.500   0.612  0.7929 -0.6846  1.2102
  362SOL     MW 1448   1.382   2.425   0.612 -0.1907  0.2074 -0.0010
  363SOL     OW 1449   0.349   3.095   0.664 -0.2857  0.3070  0.2908
  363SOL    HW1 1450   0.347   3.023   0.732  3.2591 -2.4575  0.4524
  363SOL    HW2 1451   0.256   3.094   0.633 -0.0492  1.1046 -3.4370
  363SOL     MW 1452   0.337   3.085   0.669  0.2132  0.0475 -0.1797
  364SOL     OW 1453   0.798   0.231   0.135 -0.0423 -0.6481 -0.3978
  364SOL    HW1 1454   0.739   0.161   0.135  2.6416  0.1465  2.6254
  364SOL    HW2 1455   0.770   0.296   0.069 -0.4067 -2.0560  0.1599
  364SOL     MW 1456   0.787   0.231   0.126  0.2637 -0.7290  0.0747
  365SOL     OW 1457   0.888   1.999   1.201 -0.5562 -0.4965 -0.0372
  365SOL    HW1 1458   0.866   2.096   1.195 -1.0162 -1.1512  0.0961
  365SOL    HW2 1459   0.832   1.950   1.142  1.6588  1.5656  2.5733
  365SOL     MW 1460   0.878   2.005   1.193 -0.3246 -0.3108  0.3248
  366SOL     OW 1461   2.937   2.637   0.965  0.1775 -0.2010 -0.1431
  366SOL    HW1 1462   3.003   2.642   1.037  1.0775 -0.1605  1.0408
  366SOL    HW2 1463   2.979   2.651   0.877 -3.8049  1.9059 -0.2377
  366SOL     MW 1464   2.952   2.639   0.963 -0.2292  0.0823  0.0006
  367SOL     OW 1465   1.190   2.962   0.968  0.3494  0.4223  0.8522
  367SOL    HW1 1466   1.239   2.989   0.886  0.1454  0.8207 -0.2958
  367SOL    HW2 1467   1.112   2.936   0.928  0.8308  1.1725 -2.0492
  367SOL     MW 1468   1.186   2.962   0.952  0.3860  0.5738  0.3179
  368SOL     OW 1469   1.738   0.421   0.657 -0.3710  0.1965 -0.5550
  368SOL    HW1 1470   1.771   0.345   0.612 -0.7890 -2.8478  1.0837
  368SOL    HW2 1471   1.770   0.495   0.607 -0.4047  0.0093 -1.0272
  368SOL     MW 1472   1.746   0.421   0.644 -0.4306 -0.2298 -0.4011
  369SOL     OW 1473   0.145   2.376   1.777  0.0120  0.1630  0.2742
  369SOL    HW1 1474   0.244   2.382   1.767  3.2313  1.1728 -1.7142
  369SOL    HW2 1475   0.118   2.470   1.760 -1.1514 -1.4234 -0.0933
  369SOL     MW 1476   0.155   2.389   1.774  0.2832  0.0869 -0.0366
  370SOL     OW 1477   0.736   0.146   1.035  0.0164  0.6435  0.6789
  370SOL    HW1 1478   0.779   0.174   0.954  0.7926  0.5198 -0.4291
  370SOL    HW2 1479   0.781   0.064   1.070 -1.1489 -3.2142  2.8916
  370SOL     MW 1480   0.748   0.139   1.029 -0.0350  0.1182  0.8247
  371SOL     OW 1481   1.200   2.857   1.483 -0.7899  0.3398 -0.2803
  371SOL    HW1 1482   1.200   2.765   1.460  0.4441  0.8219 -2.0675
  371SOL    HW2 1483   1.182   2.906   1.400  0.8174  4.8828  0.6685
  371SOL     MW 1484   1.198   2.852   1.469 -0.4150  1.0028 -0.3910
  372SOL     OW 1485   0.789   2.321   0.502 -0.0120 -0.0338 -0.1864
  372SOL    HW1 1486   0.775   2.231   0.537  2.6800 -0.1972 -0.4601
  372SOL    HW2 1487   0.820   2.300   0.414  2.2372 -4.2031  1.5262
  372SOL     MW 1488   0.791   2.306   0.495  0.6400 -0.6054  0.0034
  373SOL     OW 1489   2.844   2.997   1.427  0.1703 -0.0591 -0.2463
  373SOL    HW1 1490   2.921   2.970   1.381  1.3434 -1.7437  0.2546
  373SOL    HW2 1491   2.814   3.071   1.378 -1.7146 -0.7938  0.2795
  373SOL     MW 1492   2.850   3.003   1.414  0.0764 -0.3783 -0.1109
  374SOL     OW 1493   1.589   0.463   0.289 -0.1677 -0.1902  0.0811
  374SOL    HW1 1494   1.661   0.411   0.257  0.5677 -1.5718 -2.6463
  374SOL    HW2 1495   1.548   0.407   0.357  0.5402 -1.9883  0.8094
  374SOL     MW 1496   1.593   0.448   0.294  0.0227 -0.6098 -0.1826
  375SOL     OW 1497   1.003   2.144   2.285  0.8098 -0.5607 -0.4726
  375SOL    HW1 1498   1.061   2.120   2.357 -2.4975  0.4137 -1.2414
  375SOL    HW2 1499   0.966   2.063   2.254  1.1529  0.9637  2.2834
  375SOL     MW 1500   1.006   2.130   2.290  0.4187 -0.2310 -0.2104
  376SOL     OW 1501   0.767   2.501   0.086  0.5367 -0.1510  1.0636
  376SOL    HW1 1502   0.743   2.434   0.143 -2.7385 -0.0687 -1.1442
  376SOL    HW2 1503   0.782   2.455   0.004 -0.2159  0.0371  1.2849
  376SOL     MW 1504   0.766   2.486   0.082  0.0053 -0.1153  0.8015
  377SOL     OW 1505   1.318   2.043   0.926  0.3965  0.0896  0.2783
  377SOL    HW1 1506   1.247   2.035   0.866  3.0141 -3.6170  0.2927
  377SOL    HW2 1507   1.280   2.019   1.013 -0.7429  1.6250  1.5311
  377SOL     MW 1508   1.304   2.039   0.929  0.5915 -0.1969  0.4455
  378SOL     OW 1509   0.905   2.855   1.532 -0.6303 -0.2679 -0.1966
  378SOL    HW1 1510   0.967   2.796   1.587  0.8061  0.8278 -3.2567
  378SOL    HW2 1511   0.938   2.832   1.445  3.0931  0.9172  2.6431
  378SOL     MW 1512   0.917   2.845   1.528  0.0505  0.0330 -0.2257
  379SOL     OW 1513   1.114   1.622   2.225 -0.5666 -0.1235  0.2912
  379SOL    HW1 1514   1.038   1.617   2.166  1.1015 -1.9466 -1.6307
  379SOL    HW2 1515   1.188   1.600   2.171 -1.8265 -1.0354  0.7954
  379SOL     MW 1516   1.114   1.618   2.210 -0.5127 -0.4843  0.1042
  380SOL     OW 1517   0.872   0.102   1.424  0.1582  0.0654 -0.1561
  380SOL    HW1 1518   0.907   0.022   1.384 -1.5742  1.7065  1.1207
  380SOL    HW2 1519   0.934   0.122   1.496  0.8325  1.1079  1.9404
  380SOL     MW 1520   0.885   0.094   1.428  0.0186  0.4195  0.2890
  381SOL     OW 1521   0.825   2.047   0.826 -0.6939 -0.0707  0.0741
  381SOL    HW1 1522   0.918   2.028   0.815  0.8849  0.0212  1.6402
  381SOL    HW2 1523   0.819   2.122   0.890  0.8042 -0.8936 -2.2912
  381SOL     MW 1524   0.836   2.055   0.833 -0.2879 -0.1671 -0.0313
  382SOL     OW 1525   0.828   0.151   0.620  0.1488  0.3749 -0.1936
  382SOL    HW1 1526   0.810   0.222   0.686 -1.6299  0.8836  0.6817
  382SOL    HW2 1527   0.776   0.070   0.649  2.2588 -3.0616 -0.0528
  382SOL     MW 1528   0.819   0.150   0.632  0.1926 -0.0114 -0.0595
  383SOL     OW 1529   0.603   0.067   0.320  0.1379 -0.0766  0.1943
  383SOL    HW1 1530   0.671   0.011   0.280  0.2137  0.0576 -0.5252
  383SOL    HW2 1531   0.535   0.016   0.366  0.5759 -0.9200  0.4958
  383SOL     MW 1532   0.603   0.053   0.321  0.2057 -0.1702  0.1392
  384SOL     OW 1533   0.741   2.973   0.662 -0.1687  0.2844 -0.3608
  384SOL    HW1 1534   0.815   2.940   0.725 -0.1594  2.4263 -0.4922
  384SOL    HW2 1535   0.691   2.896   0.637  2.1963 -0.0762 -1.5431
  384SOL     MW 1536   0.744   2.958   0.667  0.1446  0.5195 -0.5342
  385SOL     OW 1537   1.383   2.084   1.540 -0.4180 -0.3543 -0.2536
  385SOL    HW1 1538   1.456   2.113   1.595 -2.4181 -2.0737 -0.2139
  385SOL    HW2 1539   1.363   1.994   1.565 -0.5464  2.4618  1.7084
  385SOL     MW 1540   1.390   2.076   1.550 -0.6989 -0.2096  0.0105
  386SOL     OW 1541   1.440   0.398   0.900  0.7218  0.7341  0.1179
  386SOL    HW1 1542   1.391   0.434   0.973 -1.5483 -3.1063 -0.0859
  386SOL    HW2 1543   1.526   0.386   0.943 -0.3610  1.7078  2.3148
  386SOL     MW 1544   1.445   0.401   0.915  0.2794  0.3559  0.3809
  387SOL     OW 1545   0.812   2.176   1.563 -0.0582  1.3276  0.2081
  387SOL    HW1 1546   0.858   2.213   1.489 -1.4769 -1.3116  1.4782
  387SOL    HW2 1547   0.791   2.085   1.536 -0.2621  0.3275 -0.8491
  387SOL     MW 1548   0.816   2.169   1.550 -0.2723  0.8474  0.2362
  388SOL     OW 1549   1.470   2.771   1.344  0.2449 -0.6671  0.7070
  388SOL    HW1 1550   1.407   2.848   1.357 -0.5510  1.3998 -1.2286
  388SOL    HW2 1551   1.435   2.719   1.266 -1.5509  0.9520  1.3157
  388SOL     MW 1552   1.457   2.774   1.335 -0.0970 -0.1808  0.5320
  389SOL     OW 1553   0.524   0.147   3.073 -0.2928  0.0102  0.2832
  389SOL    HW1 1554   0.602   0.119   3.024  1.7715 -0.2566  1.1692
  389SOL    HW2 1555   0.468   0.178   3.009  0.5877 -1.7926 -1.5182
  389SOL     MW 1556   0.527   0.147   3.058  0.0957 -0.2629  0.1625
  390SOL     OW 1557   1.373   0.037   0.749 -0.0622 -0.1508 -0.0649
  390SOL    HW1 1558   1.419   0.035   0.670  0.7458  0.7576  0.3862
  390SOL    HW2 1559   1.441   0.075   0.800 -0.0203 -0.5299  1.3647
  390SOL     MW 1560   1.388   0.041   0.745  0.0500 -0.0809  0.1832
  391SOL     OW 1561   0.355   2.189   1.523 -0.0229 -0.2047 -0.2660
  391SOL    HW1 1562   0.296   2.135   1.567 -0.5533  0.5681  0.6195
  391SOL    HW2 1563   0.309   2.274   1.524  0.2115  0.5223  1.1839
  391SOL     MW 1564   0.341   2.193   1.529 -0.0619 -0.0068  0.0421
  392SOL     OW 1565   1.992   2.233   0.309 -0.9969  0.1718  0.4020
  392SOL    HW1 1566   2.044   2.295   0.362 -2.7725 -0.8717  1.9432
  392SOL    HW2 1567   1.900   2.253   0.332 -0.3064 -0.5541 -0.3671
  392SOL     MW 1568   1.987   2.244   0.319 -1.1401 -0.0617  0.5039
  393SOL     OW 1569   0.252   2.972   2.879 -0.0337  0.0679  0.0006
  393SOL    HW1 1570   0.311   2.916   2.830 -1.0814  2.3869 -1.1371
  393SOL    HW2 1571   0.276   3.070   2.866  0.9366  0.5158 -1.0431
  393SOL     MW 1572   0.263   2.978   2.871 -0.0439  0.4330 -0.2872
  394SOL     OW 1573   1.040   1.767   1.507  0.3853  0.0537 -0.5060
  394SOL    HW1 1574   1.047   1.792   1.597  0.4949 -1.4143  1.7419
  394SOL    HW2 1575   0.961   1.809   1.471  1.8513 -0.2811 -0.4054
  394SOL     MW 1576   1.031   1.776   1.514  0.5932 -0.1842 -0.1961
  395SOL     OW 1577   0.921   2.960   2.643 -0.4131 -0.2770  0.8634
  395SOL    HW1 1578   0.979   2.993   2.716  3.0946  0.2570  2.9940
  395SOL    HW2 1579   0.965   2.876   2.615 -1.6335 -0.4599  0.6377
  395SOL     MW 1580   0.935   2.953   2.649 -0.1113 -0.2307  1.1147
  396SOL     OW 1581   0.738   1.902   2.410  0.1719 -0.1954 -0.8222
  396SOL    HW1 1582   0.799   1.881   2.480  3.2565 -0.1221 -1.1757
  396SOL    HW2 1583   0.687   1.826   2.388 -1.0486  0.2220 -0.7908
  396SOL     MW 1584   0.740   1.889   2.417  0.4178 -0.1307 -0.8647
  397SOL     OW 1585   0.961   2.298   1.380 -0.0855 -0.1584 -0.1475
  397SOL    HW1 1586   0.981   2.326   1.292 -4.2008  0.0080  1.0838
  397SOL    HW2 1587   1.046   2.287   1.418  2.2588  1.3963  2.6489
  397SOL     MW 1588   0.975   2.300   1.373 -0.3192  0.0687  0.3839
  398SOL     OW 1589   0.617   2.723   0.628  0.3681 -0.0903  0.0910
  398SOL    HW1 1590   0.533   2.696   0.580  0.3053 -1.5672 -0.0338
  398SOL    HW2 1591   0.686   2.659   0.602 -1.3616 -1.3654 -0.9659
  398SOL     MW 1592   0.615   2.711   0.618  0.1316 -0.4534 -0.0649
  399SOL     OW 1593   0.289   2.097   0.320  0.8521 -0.1687 -0.0964
  399SOL    HW1 1594   0.192   2.115   0.317 -0.7131  0.5180  1.3925
  399SOL    HW2 1595   0.331   2.131   0.243 -2.1263 -0.8189  0.3197
  399SOL     MW 1596   0.282   2.104   0.309  0.2526 -0.1639  0.1549
  400SOL     OW 1597   0.607   1.893   0.101  0.1970  0.4277 -0.8433
  400SOL    HW1 1598   0.568   1.978   0.105  1.4578 -1.9636 -1.7839
  400SOL    HW2 1599   0.588   1.844   0.180  0.1894  0.6832 -0.1331
  400SOL     MW 1600   0.599   1.898   0.112  0.3624  0.1459 -0.8737
  401SOL     OW 1601   0.802   2.070   0.038  0.5229  0.0021  0.2646
  401SOL    HW1 1602   0.894   2.033   0.039  0.2924 -0.4563  0.0201
  401SOL    HW2 1603   0.747   1.994   0.057  0.5107 -0.4791  2.3818
  401SOL     MW 1604   0.807   2.055   0.041  0.4909 -0.1219  0.5117
  402SOL     OW 1605   0.543   3.011   1.725  0.0597 -0.0898  0.3797
  402SOL    HW1 1606   0.615   2.960   1.758  2.6853  0.5857 -0.1425
  402SOL    HW2 1607   0.575   3.100   1.717  1.2550 -2.3700  0.2908
  402SOL     MW 1608   0.557   3.016   1.729  0.5639 -0.3015  0.2991
  403SOL     OW 1609   0.123   0.518   0.402 -0.2020 -0.0210  0.1633
  403SOL    HW1 1610   0.212   0.541   0.440  2.8752 -0.5956  0.1872
  403SOL    HW2 1611   0.140   0.474   0.311 -0.0743 -0.8863 -2.8132
  403SOL     MW 1612   0.137   0.515   0.395  0.2208 -0.2110 -0.2262
  404SOL     OW 1613   0.953   2.914   0.840 -0.3551 -0.0640  0.3289
  404SOL    HW1 1614   1.021   2.864   0.797  2.1101  2.1680  1.3737
  404SOL    HW2 1615   0.982   3.001   0.824 -2.0743  1.5892  1.1255
  404SOL     MW 1616   0.966   2.919   0.832 -0.2567  0.4486  0.5719
  405SOL     OW 1617   0.480   2.466   1.498  0.7534 -0.1591 -0.0323
  405SOL    HW1 1618   0.522   2.537   1.449  1.5023  1.1476  3.9093
  405SOL    HW2 1619   0.497   2.392   1.444  1.7599  0.1551 -3.4159
  405SOL     MW 1620   0.488   2.466   1.485  0.9850  0.0548  0.0413
  406SOL     OW 1621   0.406   2.362   1.155  0.2177 -0.1872 -0.4454
  406SOL    HW1 1622   0.312   2.361   1.147  0.0204 -1.7227 -0.4537
  406SOL    HW2 1623   0.417   2.275   1.201  0.9382  0.3024 -1.7186
  406SOL     MW 1624   0.395   2.350   1.160  0.2867 -0.3252 -0.6145
  407SOL     OW 1625   0.042   2.655   1.152 -0.0598  0.2581  0.2788
  407SOL    HW1 1626   0.097   2.675   1.224 -1.3606  0.2390 -0.4632
  407SOL    HW2 1627   0.108   2.661   1.080 -1.3923 -2.8655 -1.2376
  407SOL     MW 1628   0.058   2.658   1.152 -0.4072 -0.1565 -0.0192
  408SOL     OW 1629   2.113   2.125   0.751  0.2726 -0.1374  0.1892
  408SOL    HW1 1630   2.075   2.196   0.817 -3.3543 -1.2459 -1.0189
  408SOL    HW2 1631   2.027   2.097   0.707 -2.0852  1.3723  0.5086
  408SOL     MW 1632   2.097   2.131   0.754 -0.5170 -0.0845  0.0719
  409SOL     OW 1633   1.600   0.146   0.863  0.4519  0.2231 -0.6516
  409SOL    HW1 1634   1.659   0.212   0.895 -1.2954 -0.1710 -0.3931
  409SOL    HW2 1635   1.589   0.086   0.938  5.0239  0.7353 -0.7179
  409SOL     MW 1636   1.606   0.147   0.877  0.8246  0.2387 -0.6263
  410SOL     OW 1637   1.080   2.407   1.157  0.1273 -0.1386 -0.2596
  410SOL    HW1 1638   1.031   2.462   1.098  2.1949 -0.6371  0.2740
  410SOL    HW2 1639   1.154   2.369   1.104  0.6595  1.0928  0.6253
  410SOL     MW 1640   1.083   2.409   1.142  0.4703 -0.0419 -0.0724
  411SOL     OW 1641   2.015   2.960   2.917 -0.3075 -0.2969  0.2024
  411SOL    HW1 1642   1.998   2.907   2.841 -0.3763 -1.8302  0.0061
  411SOL    HW2 1643   2.003   3.052   2.890  0.5933 -1.3097 -1.4026
  411SOL     MW 1644   2.011   2.966   2.904 -0.1977 -0.6328 -0.0353
  412SOL     OW 1645   1.035   2.225   0.606  0.0363 -0.6922  0.0634
  412SOL    HW1 1646   1.063   2.298   0.659 -2.2241  0.9792 -0.5464
  412SOL    HW2 1647   0.945   2.250   0.587  0.3176  1.9554 -0.5239
  412SOL     MW 1648   1.027   2.238   0.610 -0.2248 -0.1224 -0.0945
  413SOL     OW 1649   0.586   2.740   0.110  0.0371 -0.4505 -0.1688
  413SOL    HW1 1650   0.639   2.653   0.115 -1.3900 -4.1232  0.4088
  413SOL    HW2 1651   0.581   2.759   0.014  1.6037  0.1503  2.4225
  413SOL     MW 1652   0.592   2.731   0.098  0.0555 -0.8558  0.2493
  414SOL     OW 1653   1.991   3.045   1.107 -0.0406 -0.1336 -0.5143
  414SOL    HW1 1654   1.992   3.138   1.136 -3.9097  1.4330  0.2608
  414SOL    HW2 1655   2.006   3.039   1.015  2.0250 -1.3595 -0.2878
  414SOL     MW 1656   1.993   3.056   1.098 -0.2785 -0.0886 -0.3821
  415SOL     OW 1657   1.631   2.837   1.126 -0.1490 -0.1673  0.1329
  415SOL    HW1 1658   1.600   2.829   1.217  2.8205  1.0623  0.7613
  415SOL    HW2 1659   1.725   2.813   1.119 -0.1176 -1.5035 -2.9319
  415SOL     MW 1660   1.640   2.833   1.137  0.2470 -0.1814 -0.1886
  416SOL     OW 1661   0.599   1.716   1.509 -0.0725 -0.5059  0.0578
  416SOL    HW1 1662   0.516   1.699   1.468  4.2803 -1.3937  0.0622
  416SOL    HW2 1663   0.654   1.647   1.474 -1.1633  0.3754  1.1586
  416SOL     MW 1664   0.596   1.705   1.499  0.3579 -0.5068  0.2036
  417SOL     OW 1665   0.998   0.004   2.069  0.1868  0.5288  0.0737
  417SOL    HW1 1666   0.918   0.015   2.118  0.9388  2.4808 -0.8649
  417SOL    HW2 1667   0.973  -0.043   1.989 -0.3605 -0.6168  0.2221
  417SOL     MW 1668   0.984  -0.000   2.065  0.2138  0.6352 -0.0306
  418SOL     OW 1669   0.762   2.980   0.144  0.0278 -0.3588 -0.5735
  418SOL    HW1 1670   0.838   2.936   0.103 -0.3613 -0.9277 -1.3543
  418SOL    HW2 1671   0.688   2.917   0.135 -0.0561 -2.4528  1.1911
  418SOL     MW 1672   0.762   2.966   0.137 -0.0346 -0.7101 -0.4437
  419SOL     OW 1673   0.559   2.682   1.345  0.3914 -0.1926  0.1561
  419SOL    HW1 1674   0.587   2.771   1.378  0.2252  1.2053  0.7918
  419SOL    HW2 1675   0.646   2.638   1.338  2.9941  0.0078  0.9301
  419SOL     MW 1676   0.574   2.688   1.349  0.7129  0.0183  0.3421
  420SOL     OW 1677   0.782   2.248   1.033  0.3233  0.5068 -0.0569
  420SOL    HW1 1678   0.691   2.255   1.063  1.2370  1.4140 -1.1522
  420SOL    HW2 1679   0.813   2.340   1.015  1.6161 -1.6549  2.6111
  420SOL     MW 1680   0.774   2.261   1.034  0.6144  0.3413  0.1506
  421SOL     OW 1681   2.908   0.149   0.025 -0.4500  0.0315  0.2490
  421SOL    HW1 1682   2.859   0.105  -0.046 -1.1339  2.6847 -1.6198
  421SOL    HW2 1683   2.969   0.080   0.060 -2.2803 -1.5163  0.3318
  421SOL     MW 1684   2.910   0.134   0.021 -0.7818  0.1773  0.0133
  422SOL     OW 1685   0.850   2.520   0.982  0.6299 -0.4838  0.0669
  422SOL    HW1 1686   0.782   2.582   1.017 -1.3324 -1.5145 -0.1018
  422SOL    HW2 1687   0.862   2.544   0.887 -1.7241 -2.2321 -1.9527
  422SOL     MW 1688   0.842   2.531   0.974  0.0604 -0.8505 -0.2219
  423SOL     OW 1689   1.456   0.067   0.479  0.0656  0.1916 -0.3812
  423SOL    HW1 1690   1.488   0.061   0.381 -1.2424  0.1139  0.7268
  423SOL    HW2 1691   1.466   0.164   0.488 -1.2555 -2.7574 -0.2245
  423SOL     MW 1692   1.462   0.079   0.467 -0.2813 -0.2077 -0.2144
  424SOL     OW 1693   0.635   2.275   1.376 -0.0387 -0.4646  0.3376
  424SOL    HW1 1694   0.578   2.218   1.319  1.6697 -0.3790  0.6789
  424SOL    HW2 1695   0.658   2.220   1.451 -0.3186  0.9233 -0.5881
  424SOL     MW 1696   0.631   2.260   1.378  0.1498 -0.2702  0.2605
  425SOL     OW 1697   1.671   2.798   2.052  0.0946  0.1211 -0.1096
  425SOL    HW1 1698   1.694   2.827   1.961 -0.6401  0.6651 -2.9771
  425SOL    HW2 1699   1.733   2.726   2.077  1.7551  2.3312 -1.5105
  425SOL     MW 1700   1.683   2.793   2.043  0.2168  0.4845 -0.6728
  426SOL     OW 1701   0.894   1.722   1.973 -0.2876  0.0146 -0.7968
  426SOL    HW1 1702   0.807   1.725   1.921 -1.9679 -0.2038 -1.9579
  426SOL    HW2 1703   0.894   1.809   2.014  1.1921 -3.1443  0.6442
  426SOL     MW 1704   0.883   1.734   1.972 -0.3141 -0.4310 -0.7599
  427SOL     OW 1705   0.369   1.702   1.879  0.8710  0.3944 -0.2037
  427SOL    HW1 1706   0.410   1.638   1.820  0.0408  2.0311  2.4988
  427SOL    HW2 1707   0.321   1.657   1.944 -1.8973  0.8594  1.7194
  427SOL     MW 1708   0.368   1.688   1.880  0.3962  0.6717  0.4066
  428SOL     OW 1709   0.578   2.588   1.090 -0.0310  0.1001 -0.1301
  428SOL    HW1 1710   0.540   2.503   1.101  0.6340  2.7042  1.3796
  428SOL    HW2 1711   0.559   2.629   1.179 -1.1310 -0.6949 -2.5724
  428SOL     MW 1712   0.570   2.582   1.103 -0.0884  0.3388 -0.2532
  429SOL     OW 1713   1.187   2.722   1.106 -0.1962 -0.4805 -0.0357
  429SOL    HW1 1714   1.097   2.691   1.125  0.3360  0.2939  0.0092
  429SOL    HW2 1715   1.190   2.807   1.060 -2.3043  0.4913 -0.3845
  429SOL     MW 1716   1.176   2.729   1.102 -0.4041 -0.2501 -0.0758
  430SOL     OW 1717   1.160   2.772   0.729 -0.0096  0.2020  0.9359
  430SOL    HW1 1718   1.163   2.676   0.754  0.6612 -2.1977 -2.0220
  430SOL    HW2 1719   1.129   2.777   0.631  0.4826 -0.4789  0.3221
  430SOL     MW 1720   1.156   2.760   0.720  0.1438 -0.2044  0.4647
  431SOL     OW 1721   0.302   1.931   1.115  0.4528  0.1536  0.1268
  431SOL    HW1 1722   0.379   1.872   1.101  3.6466 -2.4234 -1.5800
  431SOL    HW2 1723   0.259   1.949   1.027 -2.3055  4.1200  0.5100
  431SOL     MW 1724   0.306   1.926   1.102  0.5103  0.3369 -0.0478
  432SOL     OW 1725   0.072   3.100   1.142 -0.5082 -0.3293 -0.2830
  432SOL    HW1 1726   0.067   3.137   1.232 -1.3731 -2.9526  2.1239
  432SOL    HW2 1727   0.007   3.032   1.140  2.9803  0.2030  2.9358
  432SOL     MW 1728   0.063   3.096   1.153 -0.1620 -0.6052  0.4593
  433SOL     OW 1729   0.646   2.919   1.464 -0.6147 -0.2861  0.0596
  433SOL    HW1 1730   0.632   2.980   1.535  2.3644  2.2662 -2.3719
  433SOL    HW2 1731   0.748   2.901   1.480 -1.9185 -0.3707  0.1600
  433SOL     MW 1732   0.657   2.925   1.475 -0.3936  0.0395 -0.2479
  434SOL     OW 1733   1.510   2.824   1.625  0.6987  0.0845  0.5875
  434SOL    HW1 1734   1.431   2.869   1.641  1.3766  1.0775  0.5609
  434SOL    HW2 1735   1.503   2.786   1.533  0.1725 -1.3021  0.1097
  434SOL     MW 1736   1.499   2.825   1.615  0.7187  0.0326  0.5209
  435SOL     OW 1737   2.751   1.770   0.213 -0.4023 -0.2606  0.0164
  435SOL    HW1 1738   2.782   1.828   0.149  0.3944  1.3285  0.0555
  435SOL    HW2 1739   2.659   1.787   0.225 -0.2305 -0.8574 -0.4017
  435SOL     MW 1740   2.743   1.780   0.206 -0.2745 -0.1297 -0.0336
  436SOL     OW 1741   1.359   2.698   0.332 -0.2594  0.1952 -0.1549
  436SOL    HW1 1742   1.403   2.668   0.412 -4.5583 -1.2385  0.8330
  436SOL    HW2 1743   1.336   2.789   0.354  3.2897  0.3750  1.1255
  436SOL     MW 1744   1.362   2.706   0.346 -0.3583  0.0298  0.1443
  437SOL     OW 1745   1.054   2.991   1.294 -0.4114  0.4989 -0.3091
  437SOL    HW1 1746   1.069   3.035   1.213  0.7769 -0.0370  0.4477
  437SOL    HW2 1747   1.023   2.907   1.270 -1.5966  1.5259  1.4194
  437SOL     MW 1748   1.052   2.986   1.280 -0.4110  0.5637  0.0188
  438SOL     OW 1749   0.907   2.713   1.909 -0.0969 -0.4708  0.0791
  438SOL    HW1 1750   0.873   2.669   1.992  0.5983  3.8830  1.8718
  438SOL    HW2 1751   0.850   2.680   1.844  0.7221  0.0129 -0.2131
  438SOL     MW 1752   0.895   2.703   1.911  0.1029  0.1675  0.2771
  439SOL     OW 1753   1.229   2.080   0.421  0.3104 -0.0513  0.3601
  439SOL    HW1 1754   1.155   2.085   0.484 -1.8251 -1.9531 -0.2499
  439SOL    HW2 1755   1.204   2.140   0.344  1.8736  0.7700  0.0746
  439SOL     MW 1756   1.216   2.088   0.419  0.2349 -0.1939  0.2419
  440SOL     OW 1757   1.780   2.960   3.030 -0.4827 -0.4615 -0.4613
  440SOL    HW1 1758   1.777   2.963   3.126 -0.5135 -1.9602  0.3958
  440SOL    HW2 1759   1.872   2.950   3.004  2.4977  0.8259 -0.5749
  440SOL     MW 1760   1.792   2.959   3.040 -0.0935 -0.4894 -0.3632
  441SOL     OW 1761   0.404   2.653   0.422  0.9352 -0.4676  0.0589
  441SOL    HW1 1762   0.387   2.607   0.346  1.8444  2.2083  0.3317
  441SOL    HW2 1763   0.394   2.747   0.406  3.6108 -1.3761  0.0629
  441SOL     MW 1764   0.401   2.659   0.410  1.4082 -0.2344  0.0954
  442SOL     OW 1765   0.026   2.320   0.630  0.4102  0.4871  0.3794
  442SOL    HW1 1766   0.029   2.416   0.631  2.2360  3.8467  2.8472
  442SOL    HW2 1767  -0.065   2.298   0.652 -1.2227  1.9053  0.1343
  442SOL     MW 1768   0.014   2.330   0.633  0.4357  1.1175  0.6727
  443SOL     OW 1769   1.484   1.788   1.892 -0.5996 -0.2817 -0.3697
  443SOL    HW1 1770   1.446   1.810   1.809  2.8372 -0.2040  0.2147
  443SOL    HW2 1771   1.500   1.692   1.890  0.5469  0.0139 -1.8028
  443SOL     MW 1772   1.481   1.778   1.881  0.0051 -0.2325 -0.4816
  444SOL     OW 1773   0.991   2.610   1.641  0.1249 -0.2224 -0.3108
  444SOL    HW1 1774   1.058   2.561   1.689  1.5285  1.2459  0.8657
  444SOL    HW2 1775   0.904   2.594   1.676 -1.3616  0.8578  0.0760
  444SOL     MW 1776   0.988   2.602   1.651  0.1139  0.1138 -0.1045
  445SOL     OW 1777   1.255   0.150   1.409  0.1289  0.2424  0.2537
  445SOL    HW1 1778   1.185   0.189   1.458  1.2240  1.9413 -1.3597
  445SOL    HW2 1779   1.256   0.199   1.325 -0.7109 -0.8018 -1.6072
  445SOL     MW 1780   1.246   0.162   1.405  0.1626  0.3288 -0.2047
  446SOL     OW 1781   2.784   2.842   1.047 -0.0985  0.1180 -0.2873
  446SOL    HW1 1782   2.716   2.875   0.991 -0.1994  0.5623 -0.8084
  446SOL    HW2 1783   2.824   2.766   1.011 -2.0583  2.6229 -0.1375
  446SOL     MW 1784   2.780   2.836   1.035 -0.3704  0.5071 -0.3363
  447SOL     OW 1785   0.024   1.939   1.552  0.8811 -0.1009  0.0053
  447SOL    HW1 1786   0.040   1.857   1.603  1.8519 -1.3263  0.7165
  447SOL    HW2 1787  -0.054   1.927   1.491 -2.7423 -1.1552 -0.4462
  447SOL     MW 1788   0.016   1.926   1.551  0.5311 -0.4017  0.0396
  448SOL     OW 1789   1.766   2.401   1.670 -0.9453 -0.1356 -0.0230
  448SOL    HW1 1790   1.707   2.327   1.665  0.9758  0.7547 -1.3608
  448SOL    HW2 1791   1.708   2.473   1.677  0.4981  1.2422 -0.4139
  448SOL     MW 1792   1.750   2.401   1.670 -0.5014  0.1637 -0.2511
  449SOL     OW 1793   0.879   2.930   0.398 -0.2048  0.2992  0.4422
  449SOL    HW1 1794   0.820   2.924   0.321  0.3404 -1.3813  0.7714
  449SOL    HW2 1795   0.829   2.963   0.472  0.7423 -0.7939 -0.7822
  449SOL     MW 1796   0.864   2.933   0.398 -0.0079 -0.0667  0.3241
  450SOL     OW 1797   1.181   2.490   0.774 -0.3719  0.3064 -0.2184
  450SOL    HW1 1798   1.212   2.448   0.858 -1.8495 -1.4102  3.2211
  450SOL    HW2 1799   1.246   2.475   0.703 -0.6177  1.3917 -0.5503
  450SOL     MW 1800   1.193   2.483   0.775 -0.5992  0.2231  0.1916
  451SOL     OW 1801   0.526   1.939   1.700  0.4020 -0.6901  0.0799
  451SOL    HW1 1802   0.569   1.883   1.634 -0.7115 -1.2297  2.4339
  451SOL    HW2 1803   0.433   1.920   1.673 -1.1604  0.0465 -2.0447
  451SOL     MW 1804   0.519   1.929   1.688  0.0489 -0.6641  0.1101
  452SOL     OW 1805   0.348   2.606   0.023 -0.2452 -0.1204 -0.3548
  452SOL    HW1 1806   0.426   2.646   0.059 -0.7489  1.2031  1.6597
  452SOL    HW2 1807   0.291   2.685   0.033 -0.8157  3.0939 -1.0339
  452SOL     MW 1808   0.350   2.622   0.029 -0.3869  0.4783 -0.1786
  453SOL     OW 1809   0.296   3.071   1.565 -0.2458 -0.2682 -0.2624
  453SOL    HW1 1810   0.334   3.003   1.623 -1.1072 -0.9687  0.8059
  453SOL    HW2 1811   0.335   3.046   1.477 -0.1716 -2.5963 -1.1653
  453SOL     MW 1812   0.306   3.059   1.561 -0.3497 -0.6678 -0.2406
  454SOL     OW 1813   0.919   2.763   1.239  0.4669 -0.1327  0.0557
  454SOL    HW1 1814   0.873   2.684   1.284 -0.1890 -1.6694  1.3794
  454SOL    HW2 1815   0.841   2.804   1.199 -1.1610 -1.3567  2.0106
  454SOL     MW 1816   0.903   2.758   1.240  0.1656 -0.4970  0.4883
  455SOL     OW 1817   1.733   2.886   0.214  0.6526  0.0341 -0.7563
  455SOL    HW1 1818   1.784   2.857   0.292 -2.3802 -0.0643 -1.4171
  455SOL    HW2 1819   1.667   2.814   0.198  0.9785  0.1979  1.0692
  455SOL     MW 1820   1.731   2.873   0.222  0.2954  0.0427 -0.6026
  456SOL     OW 1821   2.754   0.276   1.463  0.2993 -0.0598 -0.0542
  456SOL    HW1 1822   2.756   0.217   1.383  0.7912 -1.3352 -1.7914
  456SOL    HW2 1823   2.817   0.345   1.441 -2.3676 -0.8765  0.3784
  456SOL     MW 1824   2.762   0.277   1.449  0.0123 -0.3359 -0.2263
  457SOL     OW 1825   0.791   1.699   3.057 -0.0415  0.1258 -0.3062
  457SOL    HW1 1826   0.698   1.686   3.038 -1.5044  0.6432  0.9386
  457SOL    HW2 1827   0.789   1.722   3.147 -1.5877  2.0962 -2.2832
  457SOL     MW 1828   0.779   1.700   3.066 -0.4385  0.4540 -0.4028
  458SOL     OW 1829   1.362   1.481   0.701 -0.5111  0.6757 -0.0720
  458SOL    HW1 1830   1.290   1.528   0.663  2.5077 -1.5166  0.4081
  458SOL    HW2 1831   1.349   1.393   0.669 -2.2052 -0.2506  3.2568
  458SOL     MW 1832   1.351   1.476   0.692 -0.3363  0.2642  0.4306
  459SOL     OW 1833   1.581   3.097   0.254  0.2879 -0.4181  0.0033
  459SOL    HW1 1834   1.639   3.018   0.255  1.2575 -0.3955  0.4263
  459SOL    HW2 1835   1.549   3.107   0.158  1.4546  0.3992 -0.1905
  459SOL     MW 1836   1.585   3.088   0.242  0.5698 -0.3073  0.0335
  460SOL     OW 1837   1.792   2.231   0.646 -0.2517 -0.0441  0.3609
  460SOL    HW1 1838   1.713   2.202   0.688  1.2603 -1.7146 -0.6842
  460SOL    HW2 1839   1.832   2.145   0.617  1.0782  0.1117 -0.9191
  460SOL     MW 1840   1.787   2.216   0.648  0.1233 -0.2439  0.0541
  461SOL     OW 1841   0.441   2.430   0.614 -0.3944 -0.4970 -0.5701
  461SOL    HW1 1842   0.415   2.498   0.557 -0.5639 -0.3871 -1.9422
  461SOL    HW2 1843   0.424   2.463   0.703  2.4716  1.2467  0.4620
  461SOL     MW 1844   0.435   2.443   0.618 -0.0386 -0.2524 -0.6150
  462SOL     OW 1845   0.290   0.228   1.309 -0.5182  0.4017 -0.2323
  462SOL    HW1 1846   0.346   0.187   1.243 -0.2733  0.8569 -2.0802
  462SOL    HW2 1847   0.340   0.269   1.378  1.5932 -0.7029 -0.6663
  462SOL     MW 1848   0.304   0.228   1.309 -0.2073  0.3160 -0.5334
  463SOL     OW 1849   1.066   0.066   0.745  0.1542  0.2707  0.2771
  463SOL    HW1 1850   1.124   0.059   0.674  1.5453  2.2751  0.7964
  463SOL    HW2 1851   0.981   0.090   0.702 -0.7717 -3.7191  2.2503
  463SOL     MW 1852   1.062   0.068   0.730  0.2156  0.0087  0.6059
  464SOL     OW 1853   0.777   3.100   2.279 -0.2840 -0.4246  0.1262
  464SOL    HW1 1854   0.766   3.006   2.274  0.0267  1.7103  1.8759
  464SOL    HW2 1855   0.816   3.120   2.364 -1.4051  0.8550 -3.0610
  464SOL     MW 1856   0.781   3.090   2.289 -0.3910  0.0259 -0.0635
  465SOL     OW 1857   0.781   0.324   0.410  0.0943  0.8320 -0.2573
  465SOL    HW1 1858   0.771   0.272   0.495 -0.3675 -1.0067 -1.0448
  465SOL    HW2 1859   0.738   0.280   0.340  0.1546 -1.7276  3.3063
  465SOL     MW 1860   0.774   0.311   0.412  0.0414  0.2517  0.1090
  466SOL     OW 1861   1.089   2.030   0.778  0.2490  0.2436  0.1518
  466SOL    HW1 1862   1.078   1.951   0.732  1.4060  0.2664  2.8557
  466SOL    HW2 1863   1.076   2.104   0.711 -0.2771  0.4948 -0.5151
  466SOL     MW 1864   1.086   2.029   0.763  0.3322  0.2798  0.4205
  467SOL     OW 1865   1.269   2.318   0.989  0.4509 -0.1629 -0.4922
  467SOL    HW1 1866   1.363   2.324   1.010  0.6374 -0.3036  1.4721
  467SOL    HW2 1867   1.271   2.225   0.961 -1.6133 -0.5486 -2.1766
  467SOL     MW 1868   1.282   2.307   0.988  0.2031 -0.2324 -0.4553
  468SOL     OW 1869   0.507   2.662   1.888  0.2765 -0.1552 -0.5699
  468SOL    HW1 1870   0.502   2.568   1.861  0.5551 -1.2181 -0.1343
  468SOL    HW2 1871   0.427   2.694   1.861 -0.3129  1.5881  0.5579
  468SOL     MW 1872   0.496   2.654   1.881  0.2355 -0.0654 -0.3637
  469SOL     OW 1873   0.388   2.114   1.854 -0.4400 -0.2024 -0.2225
  469SOL    HW1 1874   0.298   2.074   1.864  2.0918 -1.4310  1.0606
  469SOL    HW2 1875   0.444   2.044   1.818 -1.6465 -2.2463 -0.1637
  469SOL     MW 1876   0.384   2.100   1.850 -0.2652 -0.6341 -0.0455
  470SOL     OW 1877   3.052   2.613   0.107 -0.1228  0.0264 -0.4773
  470SOL    HW1 1878   2.966   2.619   0.155 -0.0810 -0.0513  0.8783
  470SOL    HW2 1879   3.032   2.647   0.016 -2.3003  0.5016 -2.1963
  470SOL     MW 1880   3.038   2.618   0.101 -0.4046  0.0788 -0.5252
  471SOL     OW 1881   1.174   2.596   1.404 -0.2011  0.9011 -0.7446
  471SOL    HW1 1882   1.115   2.578   1.476  0.5611 -0.5002  1.9753
  471SOL    HW2 1883   1.157   2.524   1.348  1.1948  0.8257  0.1437
  471SOL     MW 1884   1.164   2.584   1.406  0.0836  0.7062 -0.2686
  472SOL     OW 1885   2.841   2.111   0.355  0.3818  0.4866 -0.0513
  472SOL    HW1 1886   2.810   2.093   0.268  1.6022  0.3074  0.6656
  472SOL    HW2 1887   2.843   2.028   0.392  1.9012  1.3704  0.1086
  472SOL     MW 1888   2.837   2.098   0.349  0.7433  0.5796  0.0644
  473SOL     OW 1889   0.814   2.561   1.403 -0.1226  0.3641 -0.0462
  473SOL    HW1 1890   0.821   2.467   1.380 -0.4973  0.9879 -0.1975
  473SOL    HW2 1891   0.833   2.561   1.499  1.5064 -2.1136  2.4563
  473SOL     MW 1892   0.817   2.548   1.413  0.0429  0.1195  0.2640
  474SOL     OW 1893   0.673   2.313   1.784  0.1546  0.3115  0.7430
  474SOL    HW1 1894   0.758   2.299   1.833  1.1362 -1.0878  1.5613
  474SOL    HW2 1895   0.702   2.285   1.698 -2.6581  0.0273  2.7752
  474SOL     MW 1896   0.688   2.307   1.779 -0.0870  0.0894  1.1191
  475SOL     OW 1897   1.610   3.082   1.520 -0.5523 -0.6459  0.4845
  475SOL    HW1 1898   1.530   3.092   1.466 -1.2548  0.9379  0.1568
  475SOL    HW2 1899   1.604   2.994   1.564  3.3022 -1.3922  1.4390
  475SOL     MW 1900   1.598   3.072   1.518 -0.1364 -0.5354  0.5672
  476SOL     OW 1901   1.416   2.598   1.112  0.0952  0.3669  0.8003
  476SOL    HW1 1902   1.328   2.650   1.109  0.9799  0.5292  2.4551
  476SOL    HW2 1903   1.467   2.657   1.058 -0.4657  2.4868 -0.6043
  476SOL     MW 1904   1.411   2.613   1.105  0.1379  0.6680  0.8333
  477SOL     OW 1905   0.848   2.569   0.644  0.2785  0.1377 -0.5849
  477SOL    HW1 1906   0.920   2.608   0.593 -0.5205 -1.1493 -0.1385
  477SOL    HW2 1907   0.819   2.497   0.597  0.5543 -0.4622  1.6457
  477SOL     MW 1908   0.854   2.565   0.631  0.2094 -0.1113 -0.2317
  478SOL     OW 1909   0.195   2.657   0.945  0.2459  0.6142  0.3412
  478SOL    HW1 1910   0.232   2.740   0.909  1.4831  0.7959 -0.7173
  478SOL    HW2 1911   0.268   2.594   0.933  1.1758  0.7839 -1.7288
  478SOL     MW 1912   0.209   2.660   0.939  0.5318  0.6605 -0.0716
  479SOL     OW 1913   1.420   1.989   1.285 -0.2777  0.2663 -0.1432
  479SOL    HW1 1914   1.413   2.033   1.367 -1.7733 -1.0757 -0.5186
  479SOL    HW2 1915   1.468   1.904   1.299 -0.1856  1.6008 -0.1948
  479SOL     MW 1916   1.425   1.983   1.298 -0.4629  0.2653 -0.1995
  480SOL     OW 1917   2.012   2.453   1.316 -0.2305  0.7199  0.5892
  480SOL    HW1 1918   1.993   2.357   1.326  1.4813 -1.8963 -0.0963
  480SOL    HW2 1919   2.044   2.461   1.227  0.5276 -0.5660 -0.5569
  480SOL     MW 1920   2.013   2.441   1.306  0.0954  0.2051  0.3475
  481SOL     OW 1921   1.033   0.068   1.054 -0.0590  0.7981  0.3340
  481SOL    HW1 1922   1.092  -0.001   1.023  0.6643  0.5732  0.2001
  481SOL    HW2 1923   1.083   0.138   1.092  1.4727 -1.1189 -0.8966
  481SOL     MW 1924   1.047   0.068   1.055  0.2385  0.5155  0.1540
  482SOL     OW 1925   1.104   3.075   0.289  0.3446  0.3029  0.0966
  482SOL    HW1 1926   1.009   3.046   0.304 -1.3553 -0.6545 -0.9850
  482SOL    HW2 1927   1.108   3.168   0.302  0.0352 -0.9928 -0.5491
  482SOL     MW 1928   1.092   3.083   0.293  0.0795  0.0057 -0.1313
  483SOL     OW 1929   0.411   2.980   0.431 -0.1409  0.5356  0.4859
  483SOL    HW1 1930   0.320   2.997   0.396 -2.7141  0.9434 -2.1647
  483SOL    HW2 1931   0.410   3.024   0.516  0.6239  0.7124  2.1322
  483SOL     MW 1932   0.399   2.988   0.437 -0.3795  0.6128  0.3534
  484SOL     OW 1933   1.875   1.938   1.508  0.2654  0.2848  0.2468
  484SOL    HW1 1934   1.901   2.018   1.455 -2.5020 -0.3967 -3.3083
  484SOL    HW2 1935   1.832   1.978   1.581  0.5516  1.0453  0.1326
  484SOL     MW 1936   1.873   1.954   1.511 -0.0620  0.2952 -0.2373
  485SOL     OW 1937   0.568   2.360   0.243 -0.2407  0.8876 -0.3068
  485SOL    HW1 1938   0.611   2.328   0.326  0.8588  1.0155  1.2789
  485SOL    HW2 1939   0.474   2.376   0.260  1.4534  2.4733 -0.2446
  485SOL     MW 1940   0.562   2.358   0.256  0.1279  1.1137 -0.0894
  486SOL     OW 1941   0.173   2.409   1.487  0.2705  0.6707 -0.0179
  486SOL    HW1 1942   0.228   2.480   1.461 -0.1015  0.1781  1.3209
  486SOL    HW2 1943   0.147   2.438   1.578 -0.2985 -1.9929  2.0715
  486SOL     MW 1944   0.177   2.422   1.495  0.1464  0.2543  0.4344
  487SOL     OW 1945   1.211   1.712   1.046 -0.3715  0.0601 -0.4255
  487SOL    HW1 1946   1.200   1.798   1.089  0.6440  1.5416  1.4860
  487SOL    HW2 1947   1.306   1.707   1.025  1.0474  3.2249  2.7908
  487SOL     MW 1948   1.222   1.723   1.049 -0.0503  0.6732  0.2511
  488SOL     OW 1949   1.615   1.830   0.570  0.2679 -0.1530 -0.3913
  488SOL    HW1 1950   1.675   1.819   0.497  1.0386 -1.3059 -1.6431
  488SOL    HW2 1951   1.576   1.918   0.542  1.1500 -0.1341  0.7143
  488SOL     MW 1952   1.617   1.840   0.557  0.4859 -0.3026 -0.4106
  489SOL     OW 1953   0.772   0.844   0.624  0.4485  0.0690 -0.2665
  489SOL    HW1 1954   0.815   0.772   0.575 -0.5282 -0.3702  0.5125
  489SOL    HW2 1955   0.739   0.801   0.702  0.7572  1.0474 -1.7434
  489SOL     MW 1956   0.773   0.829   0.628  0.3604  0.1401 -0.3586
  490SOL     OW 1957   1.484   2.052   0.501 -0.3147  0.3893  0.7655
  490SOL    HW1 1958   1.485   2.131   0.445  0.1257  0.9195 -2.5372
  490SOL    HW2 1959   1.387   2.029   0.498  2.1992  0.3271 -1.0376
  490SOL     MW 1960   1.471   2.059   0.493  0.0751  0.4511  0.0918
  491SOL     OW 1961   1.299   2.959   0.436 -0.7345  0.6504 -0.2498
  491SOL    HW1 1962   1.362   3.028   0.463  3.7584  1.3072  0.0108
  491SOL    HW2 1963   1.229   3.007   0.387 -0.4561 -1.3239  0.2857
  491SOL     MW 1964   1.298   2.974   0.433 -0.1050  0.4766 -0.1447
  492SOL     OW 1965   1.496   2.186   0.732  0.5418  0.0050 -0.1466
  492SOL    HW1 1966   1.479   2.134   0.653  1.5344 -0.7008 -1.9809
  492SOL    HW2 1967   1.492   2.129   0.811  1.4974  0.2853 -0.6636
  492SOL     MW 1968   1.493   2.172   0.732  0.7989 -0.0512 -0.4569
  493SOL     OW 1969   0.161   3.010   0.333 -0.2752 -1.1030 -0.3108
  493SOL    HW1 1970   0.126   3.062   0.410 -0.2643  1.5018 -0.3049
  493SOL    HW2 1971   0.184   3.070   0.267 -1.0639 -1.5963  1.3173
  493SOL     MW 1972   0.160   3.025   0.335 -0.3778 -0.8244 -0.0952
  494SOL     OW 1973   0.427   2.417   1.771 -0.2407  0.9377 -0.1330
  494SOL    HW1 1974   0.513   2.369   1.776  0.4938  1.3592 -0.4782
  494SOL    HW2 1975   0.424   2.426   1.675 -0.1502 -1.4797 -1.0131
  494SOL     MW 1976   0.438   2.412   1.759 -0.1319  0.6744 -0.2947
  495SOL     OW 1977   2.869   1.699   2.593 -0.5581  0.5053  0.1769
  495SOL    HW1 1978   2.846   1.787   2.569 -2.9145  1.5052 -0.0139
  495SOL    HW2 1979   2.839   1.683   2.683  0.7686 -0.6602 -2.0042
  495SOL     MW 1980   2.862   1.708   2.602 -0.6940  0.4834 -0.1360
  496SOL     OW 1981   2.927   2.369   2.702  0.0799 -0.2838 -0.5790
  496SOL    HW1 1982   2.971   2.314   2.774  0.3621  0.1676 -0.6818
  496SOL    HW2 1983   3.000   2.424   2.676 -0.5569  0.0603 -0.2407
  496SOL     MW 1984   2.943   2.369   2.708  0.0331 -0.1788 -0.5479
  497SOL     OW 1985   1.615   2.198   2.619 -0.5403  0.3272 -0.3242
  497SOL    HW1 1986   1.536   2.157   2.587  0.6635  0.1816  0.6854
  497SOL    HW2 1987   1.638   2.148   2.696 -1.2527 -1.1374  0.5327
  497SOL     MW 1988   1.607   2.186   2.625 -0.4755  0.1148 -0.0779
  498SOL     OW 1989   1.452   2.699   2.349  0.3242 -0.4257  0.5263
  498SOL    HW1 1990   1.419   2.611   2.360  0.9310 -0.9885  0.8935
  498SOL    HW2 1991   1.543   2.694   2.382 -1.3419 -1.3733 -1.8165
  498SOL     MW 1992   1.460   2.686   2.355  0.1844 -0.6250  0.2656
  499SOL     OW 1993   1.007   0.142   3.075  0.2003  0.4776 -0.3901
  499SOL    HW1 1994   0.947   0.159   3.149 -0.8290  1.1172  4.7182
  499SOL    HW2 1995   1.063   0.060   3.082 -0.1889 -3.7470 -1.7602
  499SOL     MW 1996   1.007   0.133   3.086  0.0131  0.0046  0.1031
  500SOL     OW 1997   1.123   2.502   2.755  0.0314 -0.4126  0.1317
  500SOL    HW1 1998   1.194   2.505   2.817 -0.3546 -2.1668  0.8145
  500SOL    HW2 1999   1.044   2.492   2.808 -0.2892 -0.0121 -1.7554
  500SOL     MW 2000   1.122   2.501   2.770 -0.0618 -0.5912 -0.0272
  501SOL     OW 2001   1.819   2.212   3.090  0.5685 -0.2299  0.2267
  501SOL    HW1 2002   1.779   2.297   3.122 -1.9766 -3.2468 -0.8338
  501SOL    HW2 2003   1.911   2.212   3.125 -1.4570  0.0897  1.5874
  501SOL     MW 2004   1.826   2.224   3.099 -0.0345 -0.5858  0.2663
  502SOL     OW 2005   0.155   2.834   3.082  0.0171  0.0710 -0.2060
  502SOL    HW1 2006   0.098   2.779   3.027  0.8108  3.3953  0.8106
  502SOL    HW2 2007   0.191   2.898   3.014  0.2074 -2.8186  0.8449
  502SOL     MW 2008   0.152   2.835   3.066  0.1469  0.1284  0.0668
  503SOL     OW 2009   1.017   2.832   2.176 -0.2195  0.6232 -0.3299
  503SOL    HW1 2010   1.020   2.790   2.090  0.6301 -0.2216 -2.2217
  503SOL    HW2 2011   1.018   2.916   2.135 -2.2836  0.1550  1.5128
  503SOL     MW 2012   1.018   2.837   2.159 -0.3798  0.4500 -0.3364
  504SOL     OW 2013   0.051   2.691   2.112 -0.2708  0.1977  0.3358
  504SOL    HW1 2014   0.087   2.615   2.069 -1.2191 -0.2824  2.8185
  504SOL    HW2 2015   0.041   2.658   2.202 -0.4770 -1.6947 -3.0449
  504SOL     MW 2016   0.054   2.677   2.118 -0.4231 -0.1153  0.2173
  505SOL     OW 2017   1.686   2.688   2.687  0.2171 -0.4434  0.2285
  505SOL    HW1 2018   1.701   2.730   2.602 -1.0536  1.8361 -1.9440
  505SOL    HW2 2019   1.606   2.726   2.732 -0.8603  0.0519 -1.6662
  505SOL     MW 2020   1.677   2.698   2.682 -0.0927 -0.0773 -0.3081
  506SOL     OW 2021   1.610   3.024   2.836 -0.4359 -0.4606 -0.4796
  506SOL    HW1 2022   1.662   3.006   2.916  0.0144 -0.9159 -0.5871
  506SOL    HW2 2023   1.665   3.005   2.757 -1.6899 -1.2540  0.5947
  506SOL     MW 2024   1.624   3.019   2.836 -0.5419 -0.6254 -0.3520
  507SOL     OW 2025   0.872   2.727   2.849 -0.3334  0.0499 -0.2567
  507SOL    HW1 2026   0.917   2.807   2.807 -2.7865  0.5233 -1.6710
  507SOL    HW2 2027   0.796   2.769   2.881  0.2403  0.4649  3.6550
  507SOL     MW 2028   0.868   2.743   2.848 -0.5814  0.1671  0.0728
  508SOL     OW 2029   1.137   2.073   2.519  0.0080 -0.7170  0.0132
  508SOL    HW1 2030   1.216   2.054   2.575  1.4633 -0.8127 -0.1486
  508SOL    HW2 2031   1.094   2.138   2.580 -0.5730  1.2889 -2.4716
  508SOL     MW 2032   1.142   2.079   2.534  0.1234 -0.4650 -0.3360
  509SOL     OW 2033   0.607   2.557   2.903  0.2125  0.3669  0.4786
  509SOL    HW1 2034   0.603   2.509   2.820 -0.3312 -2.1267 -1.2889
  509SOL    HW2 2035   0.523   2.536   2.952  1.0427  0.6948  4.8358
  509SOL     MW 2036   0.596   2.548   2.899  0.2503  0.0812  0.8203
  510SOL     OW 2037   1.509   2.579   1.694  0.2712  0.3791 -0.2323
  510SOL    HW1 2038   1.527   2.666   1.668 -1.4930 -0.7828 -0.4614
  510SOL    HW2 2039   1.472   2.593   1.780  2.0774 -1.1142 -1.6967
  510SOL     MW 2040   1.507   2.592   1.702  0.2767  0.0287 -0.4557
  511SOL     OW 2041   0.415   2.613   2.432 -0.1784 -0.8730 -0.1000
  511SOL    HW1 2042   0.488   2.563   2.471 -0.3070  2.1206  0.8811
  511SOL    HW2 2043   0.433   2.617   2.339 -0.3804  5.9354 -2.5638
  511SOL     MW 2044   0.427   2.607   2.425 -0.2220  0.4203 -0.2956
  512SOL     OW 2045   1.027   1.988   2.847 -0.4888 -0.4913 -0.5048
  512SOL    HW1 2046   0.944   2.033   2.859  0.1546 -1.1521 -0.1047
  512SOL    HW2 2047   1.018   1.893   2.850 -1.6979 -0.1965  0.2932
  512SOL     MW 2048   1.015   1.982   2.849 -0.5634 -0.5396 -0.3467
  513SOL     OW 2049   1.480   2.418   2.392 -0.4543 -0.0889  0.1874
  513SOL    HW1 2050   1.575   2.431   2.397 -2.3293 -3.3929  1.0977
  513SOL    HW2 2051   1.474   2.331   2.430 -0.8744 -0.2344  0.1877
  513SOL     MW 2052   1.491   2.409   2.398 -0.7571 -0.5440  0.3075
  514SOL     OW 2053   0.275   2.464   2.630 -0.2310 -0.1363  0.5258
  514SOL    HW1 2054   0.327   2.516   2.571 -2.5362 -0.2081  3.9477
  514SOL    HW2 2055   0.295   2.479   2.722  1.0002 -1.1347 -1.2010
  514SOL     MW 2056   0.285   2.473   2.634 -0.3727 -0.2775  0.7495
  515SOL     OW 2057   1.046   2.060   1.897  0.2363 -0.2319  1.2159
  515SOL    HW1 2058   0.990   2.141   1.900  0.3258 -1.8338  1.2167
  515SOL    HW2 2059   1.134   2.093   1.928  0.5806 -0.2922  1.7339
  515SOL     MW 2060   1.050   2.075   1.901  0.2935 -0.4512  1.2843
  516SOL     OW 2061   1.469   2.501   3.039 -0.7081  0.2914  1.2701
  516SOL    HW1 2062   1.523   2.491   2.955  0.3920  0.9518 -1.9568
  516SOL    HW2 2063   1.380   2.467   3.019 -0.0797 -0.4713 -2.8834
  516SOL     MW 2064   1.464   2.495   3.025 -0.4800  0.2779  0.2964
  517SOL     OW 2065   0.580   2.400   2.134  0.1133 -0.1703 -0.0005
  517SOL    HW1 2066   0.556   2.488   2.157 -1.9495 -1.1513  1.8196
  517SOL    HW2 2067   0.507   2.354   2.098 -0.2781 -1.7818  2.4256
  517SOL     MW 2068   0.567   2.406   2.133 -0.2105 -0.5123  0.5598
  518SOL     OW 2069   1.905   0.135   2.932 -0.0412 -0.5011 -0.1580
  518SOL    HW1 2070   1.846   0.184   2.870 -1.5154 -0.5836  0.9618
  518SOL    HW2 2071   1.853   0.125   3.010 -1.3389 -1.4611 -1.1745
  518SOL     MW 2072   1.891   0.140   2.934 -0.4069 -0.6386 -0.1443
  519SOL     OW 2073   0.736   2.585   1.740 -0.5080 -0.1079  0.4003
  519SOL    HW1 2074   0.709   2.495   1.748 -0.9952 -3.7146  0.1240
  519SOL    HW2 2075   0.652   2.635   1.759 -0.1075  1.8137  2.2123
  519SOL     MW 2076   0.721   2.580   1.744 -0.5194 -0.3303  0.6029
  520SOL     OW 2077   1.270   2.121   2.954  0.2945 -0.5335  0.2798
  520SOL    HW1 2078   1.225   2.052   2.907  1.0936  0.2674  0.3690
  520SOL    HW2 2079   1.320   2.067   3.018 -0.9911  0.6766 -0.5980
  520SOL     MW 2080   1.271   2.105   2.956  0.2303 -0.2681  0.1757
  521SOL     OW 2081   1.732   2.072   2.247  0.4596 -0.2102 -0.4069
  521SOL    HW1 2082   1.745   2.109   2.157 -4.3185 -0.5278 -0.5964
  521SOL    HW2 2083   1.734   1.976   2.253  2.5755 -0.8665 -0.1828
  521SOL     MW 2084   1.734   2.064   2.236  0.1084 -0.3387 -0.4023
  522SOL     OW 2085   2.831   2.568   2.186  0.0014 -0.2672  0.3092
  522SOL    HW1 2086   2.901   2.509   2.207 -1.3147  3.2738 -0.4908
  522SOL    HW2 2087   2.789   2.593   2.269  1.3043 -0.6463  0.8300
  522SOL     MW 2088   2.835   2.564   2.199 -0.0003  0.1500  0.2723
  523SOL     OW 2089   0.848   1.506   2.125  0.1689 -0.0827 -0.2948
  523SOL    HW1 2090   0.857   1.592   2.079 -1.1621  0.3110  2.4521
  523SOL    HW2 2091   0.928   1.457   2.106  2.3151 -0.4799 -1.2005
  523SOL     MW 2092   0.860   1.511   2.116  0.2764 -0.0832 -0.0519
  524SOL     OW 2093   0.894   2.455   2.934  0.1904  0.2057  0.2032
  524SOL    HW1 2094   0.830   2.518   2.908 -0.6750 -0.3168  1.5727
  524SOL    HW2 2095   0.864   2.370   2.904  0.1241 -0.4558  1.0277
  524SOL     MW 2096   0.881   2.452   2.927  0.0675  0.0495  0.4927
  525SOL     OW 2097   0.356   2.278   2.083 -0.0139 -0.0234 -0.4357
  525SOL    HW1 2098   0.334   2.218   2.156  0.3006 -2.3787 -0.0094
  525SOL    HW2 2099   0.375   2.214   2.009  1.0633 -0.1493  0.6972
  525SOL     MW 2100   0.356   2.262   2.083  0.1697 -0.3508 -0.2300
  526SOL     OW 2101   0.689   2.100   1.983 -0.8702 -0.2104  0.0937
  526SOL    HW1 2102   0.664   2.146   1.902 -0.0940  0.7615 -0.5217
  526SOL    HW2 2103   0.711   2.180   2.035  1.9643  2.1106  0.3879
  526SOL     MW 2104   0.689   2.117   1.979 -0.3938  0.2240  0.0513
  527SOL     OW 2105   1.344   1.976   2.042  0.2219  0.2970  0.3236
  527SOL    HW1 2106   1.324   1.927   2.121 -0.2242  0.0657  1.4674
  527SOL    HW2 2107   1.400   1.910   2.003  1.3041  0.2013 -1.0868
  527SOL     MW 2108   1.348   1.961   2.047  0.3058  0.2539  0.2884
  528SOL     OW 2109   0.642   2.891   2.937  0.3077  0.3530 -0.5375
  528SOL    HW1 2110   0.682   2.978   2.939  0.9324  0.1377  1.4278
  528SOL    HW2 2111   0.577   2.895   2.871  3.9426  1.0874 -1.7441
  528SOL     MW 2112   0.639   2.903   2.928  0.8697  0.4215 -0.4374
  529SOL     OW 2113   0.921   2.294   1.899 -0.0182 -0.2526 -0.4609
  529SOL    HW1 2114   0.946   2.324   1.984 -2.3891 -1.7100 -0.0565
  529SOL    HW2 2115   0.976   2.356   1.847 -0.0403 -3.4090 -0.1574
  529SOL     MW 2116   0.931   2.306   1.903 -0.3339 -0.8614 -0.3675
  530SOL     OW 2117   1.225   2.417   2.998 -0.0990  0.4318 -0.4120
  530SOL    HW1 2118   1.138   2.447   3.043 -0.4257  2.1787 -0.4379
  530SOL    HW2 2119   1.228   2.323   2.967  0.0376  0.1642 -0.3305
  530SOL     MW 2120   1.214   2.409   3.000 -0.1241  0.6270 -0.4046
  531SOL     OW 2121   0.956   1.859   2.567  0.2026  0.3087 -0.1888
  531SOL    HW1 2122   0.997   1.942   2.573 -2.4448 -0.0936  0.0756
  531SOL    HW2 2123   0.918   1.839   2.660 -2.2875 -2.3880  3.4970
  531SOL     MW 2124   0.956   1.867   2.580 -0.4752 -0.1002  0.3324
  532SOL     OW 2125   1.739   0.297   2.776 -0.0215 -0.2546 -0.4953
  532SOL    HW1 2126   1.714   0.274   2.688 -2.6376  0.2628  1.0911
  532SOL    HW2 2127   1.804   0.362   2.774 -0.6235 -0.7738 -2.6514
  532SOL     MW 2128   1.744   0.303   2.764 -0.4461 -0.2548 -0.5705
  533SOL     OW 2129   1.824   2.682   3.049  0.2779 -0.4280  0.2862
  533SOL    HW1 2130   1.779   2.601   3.054  0.3389  2.3753  1.4313
  533SOL    HW2 2131   1.754   2.742   3.022  2.5116 -0.8824  2.6837
  533SOL     MW 2132   1.809   2.679   3.046  0.5806 -0.1181  0.7536
  534SOL     OW 2133   1.742   2.407   2.487 -0.4403 -0.2351 -0.1359
  534SOL    HW1 2134   1.695   2.337   2.541  0.7410 -1.4820  1.5586
  534SOL    HW2 2135   1.810   2.441   2.550  3.1595 -0.4024  0.0120
  534SOL     MW 2136   1.745   2.402   2.502  0.1905 -0.4217  0.1072
  535SOL     OW 2137   1.886   2.398   1.904 -0.2640  0.3980  0.5022
  535SOL    HW1 2138   1.839   2.399   1.816 -1.7697 -1.0457 -2.1780
  535SOL    HW2 2139   1.974   2.376   1.870 -1.2372 -3.2326 -0.0041
  535SOL     MW 2140   1.891   2.395   1.888 -0.5911 -0.2715  0.0818
  536SOL     OW 2141   0.576   1.820   2.061 -0.7962  0.1632  0.5376
  536SOL    HW1 2142   0.523   1.787   1.987  1.2950  0.9016 -1.2382
  536SOL    HW2 2143   0.620   1.907   2.037  1.7282  1.7533  2.4967
  536SOL     MW 2144   0.575   1.827   2.048 -0.1872  0.4704  0.5617
  537SOL     OW 2145   1.087   0.189   2.766  0.1831  0.3061 -0.2678
  537SOL    HW1 2146   1.082   0.234   2.848 -2.1840  1.5214  0.9730
  537SOL    HW2 2147   1.074   0.265   2.708  0.1879  1.8986 -0.0021
  537SOL     MW 2148   1.084   0.205   2.769 -0.1286  0.6765 -0.0690
  538SOL     OW 2149   1.470   0.060   0.020 -0.0037 -0.1537  0.7992
  538SOL    HW1 2150   1.445   0.150   0.042 -1.3995  0.2950  0.9383
  538SOL    HW2 2151   1.392   0.004   0.031  1.9957  1.2889  1.6447
  538SOL     MW 2152   1.456   0.064   0.024  0.0760  0.0959  0.9291
  539SOL     OW 2153   0.703   2.802   2.576 -0.1850 -0.1705 -0.2900
  539SOL    HW1 2154   0.761   2.879   2.574 -0.5842  1.3011  0.0289
  539SOL    HW2 2155   0.730   2.733   2.637  0.7452  1.6004 -1.4843
  539SOL     MW 2156   0.714   2.803   2.584 -0.1149  0.2573 -0.4055
  540SOL     OW 2157   0.265   2.461   2.893 -0.7013 -0.4819  0.0728
  540SOL    HW1 2158   0.254   2.517   2.967 -2.0126 -0.0509 -0.6029
  540SOL    HW2 2159   0.227   2.375   2.931  0.8196  1.0486  0.1610
  540SOL     MW 2160   0.258   2.457   2.908 -0.6736 -0.2231 -0.0047
  541SOL     OW 2161   0.210   2.935   2.133  0.4908  0.5236 -0.5863
  541SOL    HW1 2162   0.178   2.851   2.094 -2.1993  0.8163 -0.9532
  541SOL    HW2 2163   0.251   2.915   2.216  3.0142  0.6067 -1.3441
  541SOL     MW 2164   0.211   2.921   2.139  0.4688  0.5732 -0.7347
  542SOL     OW 2165   0.990   2.255   2.678 -0.4441 -0.1237 -0.0120
  542SOL    HW1 2166   0.932   2.228   2.750  0.1419 -0.8811  1.1558
  542SOL    HW2 2167   1.060   2.315   2.718 -0.3606  1.5494 -1.7684
  542SOL     MW 2168   0.991   2.260   2.693 -0.3558 -0.0029 -0.0897
  543SOL     OW 2169   1.644   2.451   2.825  0.1712  0.1647 -1.0437
  543SOL    HW1 2170   1.684   2.370   2.801 -0.5645  2.7750 -0.3685
  543SOL    HW2 2171   1.693   2.516   2.766 -1.4995  1.8617 -1.2333
  543SOL     MW 2172   1.656   2.449   2.814 -0.1463  0.7330 -0.9796
  544SOL     OW 2173   0.768   0.182   2.712 -0.7739  1.1099 -0.5315
  544SOL    HW1 2174   0.672   0.167   2.700 -0.9482 -0.0613 -0.0111
  544SOL    HW2 2175   0.817   0.175   2.626  0.1347  1.2630 -0.7697
  544SOL     MW 2176   0.762   0.179   2.699 -0.6771  0.9755 -0.4943
  545SOL     OW 2177   1.464   2.120   2.312  0.3050 -0.0677  0.0092
  545SOL    HW1 2178   1.430   2.128   2.221  0.5204 -0.1676  0.1188
  545SOL    HW2 2179   1.564   2.093   2.301  1.9250  0.9793 -0.9663
  545SOL     MW 2180   1.473   2.117   2.298  0.5472  0.0573 -0.1051
  546SOL     OW 2181   2.882   1.993   0.096 -0.4452 -0.0758 -0.3826
  546SOL    HW1 2182   2.901   2.076   0.052 -2.3517 -1.2180 -0.1186
  546SOL    HW2 2183   2.974   1.951   0.106 -2.0749 -0.3191 -1.5178
  546SOL     MW 2184   2.896   1.998   0.092 -0.9118 -0.2586 -0.4975
  547SOL     OW 2185   0.224   0.048   0.100  0.1731  0.1028 -0.2477
  547SOL    HW1 2186   0.308   0.033   0.050  1.5786 -0.3296 -2.6920
  547SOL    HW2 2187   0.152   0.034   0.043 -0.7728 -1.8414  0.7340
  547SOL     MW 2188   0.226   0.044   0.086  0.2337 -0.2108 -0.4407
  548SOL     OW 2189   0.305   2.421   0.224  0.0980  0.0431 -0.3220
  548SOL    HW1 2190   0.323   2.485   0.154  1.5325 -1.9238  0.6530
  548SOL    HW2 2191   0.214   2.380   0.193 -1.9537  0.8703  0.3814
  548SOL     MW 2192   0.295   2.424   0.210  0.0166 -0.1072 -0.1005
  549SOL     OW 2193   0.872   1.949   2.144  0.4967  0.0028 -0.1301
  549SOL    HW1 2194   0.840   2.009   2.072  0.3251 -0.6054 -1.7876
  549SOL    HW2 2195   0.805   1.946   2.222  0.7462 -0.7625  1.6241
  549SOL     MW 2196   0.859   1.957   2.145  0.5070 -0.1784 -0.1173
  550SOL     OW 2197   1.884   1.767   2.534  0.0129  0.1682 -0.3909
  550SOL    HW1 2198   1.843   1.777   2.443  0.9140 -0.8377 -0.6825
  550SOL    HW2 2199   1.844   1.823   2.605  1.1377  1.3447 -0.6930
  550SOL     MW 2200   1.873   1.776   2.531  0.2802  0.1907 -0.4692
  551SOL     OW 2201   0.861   2.214   0.267  0.0170 -0.0667 -0.0746
  551SOL    HW1 2202   0.957   2.227   0.246 -0.0539  0.8840 -3.6632
  551SOL    HW2 2203   0.835   2.179   0.186  1.0672 -0.4905  4.8336
  551SOL     MW 2204   0.870   2.211   0.253  0.1462  0.0028  0.0995
  552SOL     OW 2205   1.763   1.780   2.281  0.3895  0.5191  0.8699
  552SOL    HW1 2206   1.669   1.761   2.279 -2.6690 -1.6471  1.0205
  552SOL    HW2 2207   1.808   1.725   2.205 -1.8509 -2.0228 -2.2457
  552SOL     MW 2208   1.757   1.770   2.270 -0.3096 -0.1021  0.4787
  553SOL     OW 2209   1.190   2.300   1.537  0.1253  0.4996  0.2814
  553SOL    HW1 2210   1.238   2.212   1.551  0.7035 -1.5931 -0.8604
  553SOL    HW2 2211   1.270   2.352   1.512  1.3125  0.8640 -0.3699
  553SOL     MW 2212   1.207   2.295   1.536  0.3583  0.2716  0.0449
  554SOL     OW 2213   0.467   2.914   2.694  0.0840 -0.0630  0.4221
  554SOL    HW1 2214   0.419   2.979   2.636  0.4463  0.2833 -0.7128
  554SOL    HW2 2215   0.539   2.881   2.641 -0.9091 -1.7994  0.7974
  554SOL     MW 2216   0.470   2.918   2.679  0.0008 -0.2464  0.3218
  555SOL     OW 2217   0.608   2.457   2.569 -0.1569  0.2150  0.2045
  555SOL    HW1 2218   0.575   2.367   2.573 -3.1272  1.0880 -3.5011
  555SOL    HW2 2219   0.704   2.455   2.538 -1.0817  1.5947 -1.0868
  555SOL     MW 2220   0.616   2.445   2.566 -0.6708  0.5123 -0.4548
  556SOL     OW 2221   1.033   1.926   0.060  0.0250 -0.0453 -0.3800
  556SOL    HW1 2222   1.044   1.866  -0.010 -0.3862  0.1799  0.2485
  556SOL    HW2 2223   1.101   1.903   0.123 -2.5748  0.0571 -0.7046
  556SOL     MW 2224   1.043   1.915   0.059 -0.3723 -0.0020 -0.3399
  557SOL     OW 2225   1.026   2.712   0.472 -0.5235  0.0197  1.1955
  557SOL    HW1 2226   1.068   2.642   0.411  0.5466 -0.0587 -0.9581
  557SOL    HW2 2227   0.995   2.787   0.417  3.1032 -0.8821 -1.0628
  557SOL     MW 2228   1.027   2.713   0.457  0.0962 -0.1096  0.6134
  558SOL     OW 2229   0.173   2.254   3.017 -0.2978  0.2485  0.0456
  558SOL    HW1 2230   0.108   2.213   2.964  0.9347 -0.1444 -2.2189
  558SOL    HW2 2231   0.125   2.274   3.101  0.2007 -3.1260  0.3701
  558SOL     MW 2232   0.158   2.252   3.021 -0.0694 -0.2485 -0.2104
  559SOL     OW 2233   1.031   2.359   2.125  0.2964 -0.3600  0.2816
  559SOL    HW1 2234   1.129   2.375   2.120  0.2418 -1.9038 -1.5279
  559SOL    HW2 2235   1.027   2.293   2.196  2.3313 -2.2328 -1.1433
  559SOL     MW 2236   1.044   2.353   2.134  0.5577 -0.8108 -0.1451
  560SOL     OW 2237   2.042   2.710   0.139  0.9150 -0.7615 -0.0806
  560SOL    HW1 2238   2.095   2.766   0.087 -0.1042 -0.2208  1.5682
  560SOL    HW2 2239   1.967   2.681   0.086 -0.3492  0.7376 -1.5555
  560SOL     MW 2240   2.039   2.713   0.125  0.6137 -0.4924 -0.0577
  561SOL     OW 2241   0.474   2.127   0.111  0.4843  0.1981 -0.0026
  561SOL    HW1 2242   0.473   2.142   0.018  1.3168 -3.1463  1.2318
  561SOL    HW2 2243   0.522   2.204   0.155  0.8848  1.0960 -0.5498
  561SOL     MW 2244   0.480   2.139   0.105  0.6469 -0.1247  0.0881
  562SOL     OW 2245   0.679   2.196   2.312  0.2339  0.4324  0.3901
  562SOL    HW1 2246   0.647   2.269   2.263 -2.4019  2.3296 -0.3517
  562SOL    HW2 2247   0.775   2.201   2.340 -0.1843  0.3936  0.3562
  562SOL     MW 2248   0.688   2.207   2.309 -0.1691  0.6776  0.2878
  563SOL     OW 2249   1.227   0.401   0.560 -0.1370 -0.4190  0.2217
  563SOL    HW1 2250   1.161   0.365   0.494  3.3921  0.2535 -3.1579
  563SOL    HW2 2251   1.195   0.381   0.661  0.8669 -1.2143  2.0670
  563SOL     MW 2252   1.214   0.394   0.564  0.4611 -0.4352  0.0192
  564SOL     OW 2253   1.045   2.623   2.374  0.0081  0.3077 -0.3543
  564SOL    HW1 2254   1.046   2.689   2.307 -2.4736 -2.4313  1.6569
  564SOL    HW2 2255   1.065   2.672   2.459 -0.6532  1.5621  1.2481
  564SOL     MW 2256   1.048   2.638   2.376 -0.4066  0.1119  0.1225
  565SOL     OW 2257   2.766   2.837   2.553 -0.1363  0.1755 -0.4129
  565SOL    HW1 2258   2.774   2.924   2.513  0.4165  0.6633  0.8122
  565SOL    HW2 2259   2.757   2.766   2.491 -0.1947 -1.6834 -0.3951
  565SOL     MW 2260   2.766   2.839   2.540 -0.0711 -0.0054 -0.2489
  566SOL     OW 2261   2.185   1.951   2.324 -0.2314  0.2301  0.5645
  566SOL    HW1 2262   2.184   1.930   2.228  0.2231  0.7219 -1.4212
  566SOL    HW2 2263   2.276   1.988   2.344  0.5786 -0.2204  2.1948
  566SOL     MW 2264   2.197   1.953   2.314 -0.0646  0.2355  0.5176
  567SOL     OW 2265   1.215   3.028   0.009  0.0325  0.0943  0.4703
  567SOL    HW1 2266   1.187   3.028   0.105  1.0831 -0.7729  1.6325
  567SOL    HW2 2267   1.245   2.938  -0.006 -0.1715 -2.1983  0.9984
  567SOL     MW 2268   1.215   3.016   0.020  0.1442 -0.3226  0.6933
  568SOL     OW 2269   1.668   2.075   2.884 -0.1233 -0.6614  0.2849
  568SOL    HW1 2270   1.730   2.129   2.939  1.9590  0.6458 -1.1774
  568SOL    HW2 2271   1.735   2.016   2.841  1.5937  0.6385  2.8211
  568SOL     MW 2272   1.685   2.074   2.885  0.3780 -0.3174  0.4266
  569SOL     OW 2273   0.110   2.294   2.468  0.4056  0.1585 -0.3532
  569SOL    HW1 2274   0.051   2.340   2.403 -3.9067  1.2935  3.5316
  569SOL    HW2 2275   0.150   2.363   2.526 -1.1502 -1.6580  1.6538
  569SOL     MW 2276   0.107   2.309   2.467 -0.3686  0.0686  0.4242
  570SOL     OW 2277   1.517   0.322   0.522  0.2925  0.1080 -0.2173
  570SOL    HW1 2278   1.432   0.360   0.546 -0.9297  1.2093 -0.6475
  570SOL    HW2 2279   1.582   0.346   0.587  1.1565 -0.0951 -2.8674
  570SOL     MW 2280   1.514   0.330   0.533  0.2453  0.2265 -0.6237
  571SOL     OW 2281   1.348   2.367   2.128  0.0062  0.4317 -0.0203
  571SOL    HW1 2282   1.383   2.380   2.215  1.3927 -0.3415  1.1723
  571SOL    HW2 2283   1.407   2.317   2.078 -2.5439 -0.9349 -0.1621
  571SOL     MW 2284   1.360   2.362   2.133 -0.1473  0.1494  0.1183
  572SOL     OW 2285   1.035   2.576   0.067  0.1862  0.2114 -0.3262
  572SOL    HW1 2286   1.019   2.672   0.054  0.4282  4.8430 -0.6007
  572SOL    HW2 2287   0.942   2.538   0.069  0.5392 -1.2831 -1.5648
  572SOL     MW 2288   1.021   2.583   0.066  0.2647  0.6253 -0.5258
  573SOL     OW 2289   1.158   2.256   0.218 -0.2769 -0.6739 -0.3771
  573SOL    HW1 2290   1.237   2.241   0.161 -0.6921  0.2185 -2.0797
  573SOL    HW2 2291   1.183   2.333   0.268  0.0044 -1.1218  0.6981
  573SOL     MW 2292   1.172   2.264   0.217 -0.2945 -0.6153 -0.4599
  574SOL     OW 2293   1.131   2.527   0.319 -0.1608 -0.3197  0.2046
  574SOL    HW1 2294   1.203   2.581   0.305  0.0202 -1.0367 -0.2674
  574SOL    HW2 2295   1.080   2.555   0.239 -0.9332 -1.3534  3.6045
  574SOL     MW 2296   1.134   2.538   0.307 -0.2388 -0.5507  0.5909
  575SOL     OW 2297   3.065   2.200   1.648  0.4677 -0.5675 -0.3062
  575SOL    HW1 2298   3.079   2.108   1.621  0.0181  0.8275 -3.2517
  575SOL    HW2 2299   3.145   2.218   1.697 -1.3877  0.0471 -0.6507
  575SOL     MW 2300   3.077   2.190   1.651  0.1635 -0.3023 -0.7403
  576SOL     OW 2301   2.844   1.877   1.991  0.4140  0.7961 -0.0902
  576SOL    HW1 2302   2.861   1.959   1.932  2.0427  0.8149 -0.2667
  576SOL    HW2 2303   2.764   1.846   1.945 -0.6553 -1.7531 -3.0849
  576SOL     MW 2304   2.836   1.884   1.977  0.4878  0.4622 -0.5086
  577SOL     OW 2305   2.128   0.230   0.018 -0.1425 -0.4290 -0.4036
  577SOL    HW1 2306   2.079   0.218  -0.064  2.9773  1.9358  1.0792
  577SOL    HW2 2307   2.080   0.183   0.090 -1.4224  1.0890  2.5935
  577SOL     MW 2308   2.115   0.222   0.017  0.1003  0.0833  0.1875
  578SOL     OW 2309   1.971   2.111   2.396 -0.6044 -0.2529 -0.6099
  578SOL    HW1 2310   1.887   2.069   2.378 -1.6602  1.3173 -0.9905
  578SOL    HW2 2311   2.036   2.052   2.354  1.3066  2.0394  0.5268
  578SOL     MW 2312   1.968   2.097   2.388 -0.4916  0.2568 -0.5102
  579SOL     OW 2313   0.852   2.437   2.498 -0.5471  0.1399 -0.0755
  579SOL    HW1 2314   0.909   2.378   2.556  1.6911  0.7483 -2.3117
  579SOL    HW2 2315   0.901   2.504   2.444  0.6291  1.8107 -0.1315
  579SOL     MW 2316   0.866   2.438   2.499 -0.0966  0.4407 -0.3779
  580SOL     OW 2317   0.957   2.819   3.106  0.0823 -0.2201  0.0844
  580SOL    HW1 2318   1.039   2.851   3.071 -1.1082  0.6488 -0.2244
  580SOL    HW2 2319   0.911   2.777   3.034 -1.3082 -0.5585  2.2692
  580SOL     MW 2320   0.962   2.818   3.092 -0.2582 -0.1501  0.3319
  581SOL     OW 2321   1.133   2.409   1.789 -0.4642 -0.1333  0.2701
  581SOL    HW1 2322   1.212   2.447   1.824 -2.4388 -1.8521 -0.0368
  581SOL    HW2 2323   1.160   2.368   1.699  0.2804 -0.4337 -2.5998
  581SOL     MW 2324   1.147   2.408   1.781 -0.6265 -0.3997 -0.1491
  582SOL     OW 2325   0.001   2.877   2.705 -0.4148  0.7102 -0.4740
  582SOL    HW1 2326  -0.080   2.928   2.736 -0.3738  0.0280 -0.1484
  582SOL    HW2 2327   0.073   2.916   2.755  0.7855 -2.9443  1.4465
  582SOL     MW 2328  -0.000   2.889   2.716 -0.2510  0.1380 -0.1777
  583SOL     OW 2329   1.978   2.421   2.659 -0.4653 -0.5759 -0.6723
  583SOL    HW1 2330   2.068   2.419   2.618  1.4525 -2.8701 -2.8504
  583SOL    HW2 2331   1.963   2.331   2.679  1.2265 -0.5828 -1.1981
  583SOL     MW 2332   1.988   2.409   2.656  0.0110 -0.8795 -1.0290
  584SOL     OW 2333   0.131   1.910   2.210  0.3566  0.1843  0.0522
  584SOL    HW1 2334   0.141   1.871   2.302  1.8132  1.5597 -1.3884
  584SOL    HW2 2335   0.193   1.984   2.210  0.2306 -2.0121  0.4269
  584SOL     MW 2336   0.141   1.915   2.222  0.5321  0.0760 -0.0884
  585SOL     OW 2337   1.551   2.670   0.139  0.2501  0.6553  0.1386
  585SOL    HW1 2338   1.511   2.630   0.060  0.8198  0.2587  3.2105
  585SOL    HW2 2339   1.477   2.685   0.199 -1.0169  1.7864 -0.0309
  585SOL     MW 2340   1.536   2.667   0.137  0.1581  0.7522  0.5215
  586SOL     OW 2341   1.333   2.822   2.586 -0.0867  0.5104 -0.1353
  586SOL    HW1 2342   1.383   2.772   2.512  1.4370 -2.0456 -1.5280
  586SOL    HW2 2343   1.352   2.918   2.567  2.8241  3.3413 -0.1675
  586SOL     MW 2344   1.342   2.828   2.574  0.4984  0.5466 -0.3233
  587SOL     OW 2345   1.359   1.487   2.160  0.1239 -0.5137  0.0954
  587SOL    HW1 2346   1.330   1.400   2.191 -0.3447  1.2343 -1.2227
  587SOL    HW2 2347   1.359   1.480   2.062  0.9032  1.8212  0.5654
  587SOL     MW 2348   1.355   1.474   2.151  0.1649  0.0250 -0.0165
  588SOL     OW 2349   1.374   1.987   2.639 -0.2918  0.0668  0.5790
  588SOL    HW1 2350   1.394   1.896   2.639  0.8936  2.8900 -2.0135
  588SOL    HW2 2351   1.383   2.018   2.730 -0.2932 -0.5591  0.4407
  588SOL     MW 2352   1.378   1.979   2.651 -0.1356  0.3567  0.2187
  589SOL     OW 2353   1.421   2.014   0.075 -0.3475  0.6933  0.0744
  589SOL    HW1 2354   1.431   2.109   0.093 -2.3830 -0.6646 -0.1225
  589SOL    HW2 2355   1.378   1.972   0.149  2.8064  1.1427 -0.8656
  589SOL     MW 2356   1.417   2.021   0.087 -0.2000  0.5734 -0.0756
  590SOL     OW 2357   0.522   2.664   2.173  0.0952 -0.2263  0.2656
  590SOL    HW1 2358   0.527   2.674   2.076  4.1218  0.7380  1.5535
  590SOL    HW2 2359   0.601   2.698   2.215  0.6511  0.1954  2.8731
  590SOL     MW 2360   0.533   2.670   2.166  0.6998 -0.0434  0.7796
  591SOL     OW 2361   2.238   0.686   0.103 -0.4259  0.5540 -0.2306
  591SOL    HW1 2362   2.170   0.715   0.156  1.7592 -0.6405 -0.6269
  591SOL    HW2 2363   2.232   0.744   0.024 -0.9365 -1.1602 -2.8401
  591SOL     MW 2364   2.228   0.698   0.100 -0.2050  0.1703 -0.6272
  592SOL     OW 2365   1.689   2.973   0.822 -0.1055 -0.4426  0.2061
  592SOL    HW1 2366   1.685   3.057   0.772 -0.3733 -0.0231  0.9709
  592SOL    HW2 2367   1.781   2.943   0.807  0.6820  2.4171  0.8866
  592SOL     MW 2368   1.700   2.980   0.814 -0.0369 -0.0100  0.3968
  593SOL     OW 2369   1.977   0.703   0.780 -0.3391 -0.1362  0.4662
  593SOL    HW1 2370   1.894   0.697   0.726 -0.5004 -1.3155  1.0129
  593SOL    HW2 2371   2.025   0.625   0.750 -3.2832 -1.7516 -1.0845
  593SOL     MW 2372   1.972   0.692   0.769 -0.7488 -0.5049  0.3337
  594SOL     OW 2373   2.713   1.031   1.397  0.2472 -0.1330  0.3400
  594SOL    HW1 2374   2.800   1.027   1.355  1.1507 -1.9892 -2.3763
  594SOL    HW2 2375   2.654   1.058   1.331  3.5900 -0.7259 -1.0570
  594SOL     MW 2376   2.716   1.034   1.383  0.8075 -0.4561 -0.2027
  595SOL     OW 2377   0.491   0.908   0.853 -0.0718  0.0356 -0.2539
  595SOL    HW1 2378   0.490   0.958   0.774  0.4885  0.0558  1.5533
  595SOL    HW2 2379   0.469   0.970   0.925  2.0424 -0.8415 -2.0543
  595SOL     MW 2380   0.488   0.923   0.852  0.2810 -0.0775 -0.2530
  596SOL     OW 2381   2.459   1.343   0.502  0.0900 -0.1608 -0.9844
  596SOL    HW1 2382   2.492   1.431   0.490 -2.4337  1.4321  0.5328
  596SOL    HW2 2383   2.491   1.305   0.584 -1.8455  0.6486 -0.3901
  596SOL     MW 2384   2.467   1.350   0.511 -0.4983  0.1562 -0.7058
  597SOL     OW 2385   2.198   0.625   1.550 -0.0621 -0.2483 -0.3924
  597SOL    HW1 2386   2.230   0.562   1.616 -2.5944  0.6961 -0.5235
  597SOL    HW2 2387   2.111   0.580   1.506 -1.9635 -3.4247  1.6160
  597SOL     MW 2388   2.191   0.610   1.553 -0.6471 -0.5428 -0.1447
  598SOL     OW 2389   2.595   1.060   2.871 -0.1994 -0.2239  0.3709
  598SOL    HW1 2390   2.601   0.965   2.869  4.3581  0.0307  1.2955
  598SOL    HW2 2391   2.690   1.090   2.879 -0.2874 -0.2816  1.0258
  598SOL     MW 2392   2.608   1.051   2.872  0.3903 -0.1979  0.5793
  599SOL     OW 2393   3.073   0.400   2.255  0.2391 -0.3272  0.2554
  599SOL    HW1 2394   3.089   0.433   2.344  2.4432  1.7927  3.7507
  599SOL    HW2 2395   3.091   0.477   2.202 -0.9548 -0.8388  2.5132
  599SOL     MW 2396   3.078   0.414   2.260  0.3724 -0.1150  1.0145
  600SOL     OW 2397   1.849   1.679   0.832  0.1752  0.8007 -0.3152
  600SOL    HW1 2398   1.876   1.720   0.914 -2.5993 -2.0105 -0.3409
  600SOL    HW2 2399   1.787   1.743   0.796 -1.7679 -1.1088  1.1962
  600SOL     MW 2400   1.844   1.693   0.838 -0.4473  0.1779 -0.1191
  601SOL     OW 2401   2.549   0.720   0.814 -0.0337 -0.1129  0.0606
  601SOL    HW1 2402   2.525   0.692   0.904 -1.8728  2.6450 -0.6060
  601SOL    HW2 2403   2.489   0.660   0.756  1.8348 -0.4332 -0.5209
  601SOL     MW 2404   2.538   0.708   0.819 -0.0298  0.2087 -0.1040
  602SOL     OW 2405   2.290   1.894   0.746 -0.2129  0.1012  0.3471
  602SOL    HW1 2406   2.219   1.826   0.711 -0.1524 -0.5670 -2.8099
  602SOL    HW2 2407   2.230   1.972   0.757  0.1414 -0.3760  1.1871
  602SOL     MW 2408   2.273   1.895   0.743 -0.1582 -0.0499  0.0414
  603SOL     OW 2409   2.958   1.384   1.978 -0.1504  0.1578 -0.1866
  603SOL    HW1 2410   2.959   1.404   2.071 -1.1431  2.5001 -2.2757
  603SOL    HW2 2411   3.016   1.302   1.956  1.9109 -0.0464 -2.4010
  603SOL     MW 2412   2.966   1.375   1.987 -0.0094  0.4399 -0.7544
  604SOL     OW 2413   2.016   1.393   0.381 -0.3860 -0.0023 -0.9769
  604SOL    HW1 2414   2.086   1.355   0.436  0.7707  0.8458  0.1639
  604SOL    HW2 2415   1.962   1.441   0.445 -0.4294 -1.5096  0.4240
  604SOL     MW 2416   2.018   1.394   0.397 -0.2391 -0.0893 -0.6415
  605SOL     OW 2417   2.414   1.460   0.840 -0.2032 -0.2579 -0.6762
  605SOL    HW1 2418   2.437   1.518   0.764 -3.5532 -0.5379 -1.2951
  605SOL    HW2 2419   2.450   1.373   0.819  0.6720  0.5134  0.0161
  605SOL     MW 2420   2.422   1.456   0.827 -0.5297 -0.1931 -0.6665
  606SOL     OW 2421   2.629   1.790   1.831  0.5403 -0.2404 -0.8027
  606SOL    HW1 2422   2.537   1.781   1.861  1.2260  0.4011  1.5885
  606SOL    HW2 2423   2.639   1.694   1.814 -1.1338 -4.7698 -0.4179
  606SOL     MW 2424   2.618   1.776   1.833  0.4099 -0.7534 -0.4364
  607SOL     OW 2425   2.382   1.011   3.064 -0.4463  0.0642 -0.0442
  607SOL    HW1 2426   2.462   1.026   3.012 -1.2390  0.3612 -0.3723
  607SOL    HW2 2427   2.417   0.976   3.145  1.8269 -2.3439 -0.3415
  607SOL     MW 2428   2.397   1.008   3.067 -0.2510 -0.2144 -0.1267
  608SOL     OW 2429   1.854   0.208   0.523 -0.5225  0.4315 -0.3853
  608SOL    HW1 2430   1.859   0.230   0.433 -1.9939 -0.3748 -0.8411
  608SOL    HW2 2431   1.785   0.135   0.537  0.0417 -1.8978 -1.5285
  608SOL     MW 2432   1.846   0.201   0.513 -0.6422  0.0178 -0.5963
  609SOL     OW 2433   2.136   1.892   3.084  0.3657  0.0898 -0.1549
  609SOL    HW1 2434   2.067   1.831   3.047 -1.8937  2.6133  1.1756
  609SOL    HW2 2435   2.116   1.885   3.176 -0.9509 -1.0430  0.4851
  609SOL     MW 2436   2.124   1.883   3.091 -0.1061  0.2733  0.1051
  610SOL     OW 2437   1.829   0.918   1.210  0.0021  0.2290 -0.4637
  610SOL    HW1 2438   1.828   0.856   1.140  2.4560  1.9014  0.5035
  610SOL    HW2 2439   1.734   0.924   1.234 -1.2600 -0.7306 -1.0720
  610SOL     MW 2440   1.817   0.910   1.204  0.1593  0.3231 -0.4163
  611SOL     OW 2441   2.493   1.646   0.613 -0.1224  0.0427 -0.6891
  611SOL    HW1 2442   2.571   1.619   0.563  1.4211  1.4520  0.4367
  611SOL    HW2 2443   2.420   1.670   0.548 -2.3620  1.9477 -0.1773
  611SOL     MW 2444   2.494   1.646   0.598 -0.2142  0.4800 -0.4731
  612SOL     OW 2445   2.940   2.973   0.333  0.1029 -0.3239  0.5096
  612SOL    HW1 2446   2.916   2.998   0.420 -0.7329  0.1277  1.2893
  612SOL    HW2 2447   3.002   2.910   0.345  1.3017  2.0647  2.1349
  612SOL     MW 2448   2.945   2.968   0.346  0.1508  0.0508  0.8270
  613SOL     OW 2449   1.491   1.155   1.016 -0.5982 -0.2820  0.1860
  613SOL    HW1 2450   1.509   1.243   1.052 -0.5218 -0.7076  0.9421
  613SOL    HW2 2451   1.544   1.102   1.071 -0.0319  1.1606 -1.1886
  613SOL     MW 2452   1.500   1.159   1.028 -0.5134 -0.1478  0.1044
  614SOL     OW 2453   2.028   0.472   1.416  0.7039 -0.0930  0.5456
  614SOL    HW1 2454   2.024   0.397   1.481  0.5273 -1.0614  2.4886
  614SOL    HW2 2455   1.945   0.518   1.410  1.1017 -1.0940  1.1847
  614SOL     MW 2456   2.017   0.468   1.424  0.7331 -0.3528  0.8863
  615SOL     OW 2457   2.399   0.701   0.316  0.0214 -0.1846  0.6269
  615SOL    HW1 2458   2.479   0.656   0.342 -0.5191 -0.4474 -2.2920
  615SOL    HW2 2459   2.389   0.676   0.220  0.3346  0.2033 -2.7307
  615SOL     MW 2460   2.408   0.692   0.306 -0.0086 -0.1681 -0.2012
  616SOL     OW 2461   2.549   0.402   1.616  0.1886  0.3744 -0.1049
  616SOL    HW1 2462   2.618   0.353   1.568  0.7401 -0.5775 -0.3840
  616SOL    HW2 2463   2.521   0.455   1.544  2.9354 -1.8996  0.3067
  616SOL     MW 2464   2.555   0.402   1.600  0.6238 -0.0512 -0.0874
  617SOL     OW 2465   2.895   0.542   1.859  0.0602 -0.1523  0.1535
  617SOL    HW1 2466   2.810   0.554   1.901 -0.9771 -0.7775 -0.0825
  617SOL    HW2 2467   2.902   0.453   1.837 -2.1737  1.9219  0.6259
  617SOL     MW 2468   2.885   0.532   1.862 -0.3714  0.0389  0.1847
  618SOL     OW 2469   2.773   0.246   2.003  0.1798 -0.3872  0.2666
  618SOL    HW1 2470   2.722   0.302   2.059  3.6013  0.2344 -1.8483
  618SOL    HW2 2471   2.846   0.211   2.060  1.2988 -0.9089  2.9000
  618SOL     MW 2472   2.776   0.249   2.018  0.7788 -0.3740  0.3350
  619SOL     OW 2473   2.711   0.725   0.101  0.4256 -0.1596  0.3821
  619SOL    HW1 2474   2.749   0.813   0.102 -0.1696 -2.0451  0.2676
  619SOL    HW2 2475   2.774   0.676   0.154  3.0813 -1.1251  0.0961
  619SOL     MW 2476   2.724   0.731   0.108  0.6974 -0.5357  0.3293
  620SOL     OW 2477   2.212   1.056   0.927 -0.2561 -0.0064  0.6290
  620SOL    HW1 2478   2.303   1.029   0.910  0.8795 -0.1998  1.8136
  620SOL    HW2 2479   2.172   1.029   0.844  0.8914  2.5124  0.5353
  620SOL     MW 2480   2.219   1.049   0.914  0.0452  0.3004  0.7729
  621SOL     OW 2481   1.485   2.190   1.977  0.3650 -0.1646  0.7276
  621SOL    HW1 2482   1.444   2.103   1.990 -0.6734  0.3927  2.5034
  621SOL    HW2 2483   1.575   2.184   2.012  2.2084  0.1410 -0.7632
  621SOL     MW 2484   1.491   2.178   1.983  0.4712 -0.0507  0.7652
  622SOL     OW 2485   2.648   0.252   0.253 -0.4098  0.4995 -0.5952
  622SOL    HW1 2486   2.737   0.299   0.261  0.5825  1.3191 -0.0663
  622SOL    HW2 2487   2.666   0.160   0.245  0.1281  2.0406  1.3560
  622SOL     MW 2488   2.662   0.246   0.253 -0.2079  0.8109 -0.2679
  623SOL     OW 2489   2.401   2.752   0.862 -0.1578  0.1035 -0.2723
  623SOL    HW1 2490   2.461   2.821   0.845  1.5806  0.2524 -3.1896
  623SOL    HW2 2491   2.354   2.784   0.944  0.5196  1.8680 -0.5041
  623SOL     MW 2492   2.402   2.765   0.870  0.1609  0.3560 -0.6878
  624SOL     OW 2493   2.143   1.538   3.066 -0.0312 -0.3867  0.0549
  624SOL    HW1 2494   2.090   1.462   3.032 -0.0391  1.4601  0.6353
  624SOL    HW2 2495   2.079   1.613   3.040 -0.0113 -0.8706  2.3795
  624SOL     MW 2496   2.128   1.538   3.058 -0.0296 -0.2069  0.4382
  625SOL     OW 2497   2.201   1.875   1.004 -0.4877 -0.2576 -0.2765
  625SOL    HW1 2498   2.228   1.806   1.063  0.1516  1.1845  0.4152
  625SOL    HW2 2499   2.243   1.855   0.919  1.1336  1.7314 -1.1297
  625SOL     MW 2500   2.210   1.863   1.001 -0.1895  0.1951 -0.2978
  626SOL     OW 2501   0.157   1.820   2.457  0.5155 -0.0273  0.0236
  626SOL    HW1 2502   0.116   1.760   2.515  1.1184  0.8968 -0.7284
  626SOL    HW2 2503   0.104   1.897   2.467 -2.4700 -2.6429  0.5221
  626SOL     MW 2504   0.145   1.822   2.466  0.2011 -0.2505 -0.0098
  627SOL     OW 2505   2.552   0.852   2.559  0.5619  0.1372  0.2787
  627SOL    HW1 2506   2.490   0.907   2.602 -1.4766 -1.2841  1.6367
  627SOL    HW2 2507   2.508   0.819   2.481  1.0958  0.1515 -0.3809
  627SOL     MW 2508   2.538   0.855   2.554  0.3634 -0.0485  0.3708
  628SOL     OW 2509   2.319   1.361   1.301  0.0905 -0.1948 -0.5204
  628SOL    HW1 2510   2.263   1.299   1.257  3.1874  0.8793 -0.1265
  628SOL    HW2 2511   2.409   1.344   1.274  0.3591  2.2537 -0.0706
  628SOL     MW 2512   2.324   1.350   1.291  0.5346  0.2700 -0.4091
  629SOL     OW 2513   1.795   0.594   1.311  0.2129  0.2507 -0.2145
  629SOL    HW1 2514   1.838   0.616   1.225  0.6687  0.8177 -0.3702
  629SOL    HW2 2515   1.701   0.579   1.287  0.6336  2.4424  0.5186
  629SOL     MW 2516   1.788   0.595   1.296  0.3286  0.6147 -0.1383
  630SOL     OW 2517   2.430   1.892   3.042 -0.5233  0.2588 -0.3403
  630SOL    HW1 2518   2.421   1.983   3.003  1.0330 -1.7837 -0.4313
  630SOL    HW2 2519   2.344   1.852   3.050  1.8050 -1.6217 -1.1006
  630SOL     MW 2520   2.418   1.899   3.038 -0.0107 -0.2588 -0.4526
  631SOL     OW 2521   2.104   1.782   1.511 -0.4231  0.2108  0.5007
  631SOL    HW1 2522   2.100   1.702   1.564 -0.4873 -3.4202 -1.3106
  631SOL    HW2 2523   2.028   1.834   1.542 -0.8109  2.5479  1.2367
  631SOL     MW 2524   2.093   1.778   1.522 -0.4828  0.0401  0.3588
  632SOL     OW 2525   0.301   1.882   1.552 -0.6830 -0.2017  0.0818
  632SOL    HW1 2526   0.212   1.904   1.543  4.0092 -2.1553 -0.9860
  632SOL    HW2 2527   0.293   1.789   1.555 -0.7792  2.4595 -0.7310
  632SOL     MW 2528   0.288   1.873   1.551 -0.0766 -0.1084 -0.1664
  633SOL     OW 2529   2.600   0.536   0.404 -0.4722 -0.1496 -0.0755
  633SOL    HW1 2530   2.669   0.539   0.473  0.1295  0.1687 -0.4020
  633SOL    HW2 2531   2.577   0.449   0.382 -1.8721 -0.7544 -0.3593
  633SOL     MW 2532   2.606   0.525   0.410 -0.5775 -0.1874 -0.1560
  634SOL     OW 2533   2.617   0.001   0.633 -0.0120 -0.0234 -0.3414
  634SOL    HW1 2534   2.649   0.092   0.629  1.9477 -1.4959 -0.7403
  634SOL    HW2 2535   2.556  -0.002   0.561 -0.8528 -0.0594 -0.3604
  634SOL     MW 2536   2.613   0.013   0.623  0.1357 -0.2224 -0.3965
  635SOL     OW 2537   2.621   0.052   1.874 -0.1230 -0.1008  0.1678
  635SOL    HW1 2538   2.677   0.019   1.796 -0.8163 -0.6284  2.3875
  635SOL    HW2 2539   2.664   0.130   1.911 -1.8171  0.1509 -0.0427
  635SOL     MW 2540   2.634   0.058   1.869 -0.4380 -0.1372  0.4329
  636SOL     OW 2541   2.711   1.715   0.780 -0.1465  0.4377 -0.4360
  636SOL    HW1 2542   2.643   1.741   0.719 -0.4832 -1.2085  0.8627
  636SOL    HW2 2543   2.696   1.787   0.844 -1.5794  0.8139  0.1203
  636SOL     MW 2544   2.700   1.728   0.780 -0.3800  0.2701 -0.1912
  637SOL     OW 2545   2.858   1.505   0.670 -0.3009 -0.6880  0.3492
  637SOL    HW1 2546   2.923   1.565   0.628 -0.1713 -0.3877  0.3045
  637SOL    HW2 2547   2.808   1.564   0.730  0.3047  1.3330  2.8484
  637SOL     MW 2548   2.860   1.521   0.672 -0.2039 -0.3817  0.6731
  638SOL     OW 2549   2.790   0.526   0.612  0.2928  0.1797 -0.3331
  638SOL    HW1 2550   2.855   0.590   0.580 -2.5062 -0.0136  1.5474
  638SOL    HW2 2551   2.801   0.548   0.704 -1.2352  0.8051 -0.1787
  638SOL     MW 2552   2.800   0.537   0.620 -0.2781  0.2367 -0.0646
  639SOL     OW 2553   1.712   3.082   0.538  1.0149  0.3849  0.0031
  639SOL    HW1 2554   1.621   3.112   0.516 -0.3590  0.2604 -1.2330
  639SOL    HW2 2555   1.716   2.985   0.515 -2.5155 -3.7745 -0.2139
  639SOL     MW 2556   1.700   3.073   0.532  0.3679 -0.1803 -0.1886
  640SOL     OW 2557   0.292   1.382   0.113 -0.2731  0.9370 -0.2133
  640SOL    HW1 2558   0.324   1.380   0.017 -2.0638 -1.9422 -1.0799
  640SOL    HW2 2559   0.319   1.298   0.150 -3.1933  2.5738  0.8580
  640SOL     MW 2560   0.299   1.371   0.106 -0.8947  0.7731 -0.1863
  641SOL     OW 2561   2.209   0.331   0.402  1.0502  0.3945 -0.2763
  641SOL    HW1 2562   2.280   0.274   0.360  3.0380  0.8566  4.9221
  641SOL    HW2 2563   2.174   0.281   0.475 -2.2600 -1.1684 -1.0968
  641SOL     MW 2564   2.214   0.317   0.406  0.8757  0.2493  0.3013
  642SOL     OW 2565   0.047   0.053   0.559  0.3919 -0.4319 -0.1712
  642SOL    HW1 2566   0.028   0.144   0.511  0.7373  0.4821  1.4878
  642SOL    HW2 2567  -0.046   0.024   0.568 -0.2561 -1.7378 -0.5569
  642SOL     MW 2568   0.032   0.061   0.554  0.3520 -0.4836 -0.0032
  643SOL     OW 2569   2.078   0.328   1.635  0.1931  0.6921 -0.2897
  643SOL    HW1 2570   2.006   0.309   1.697 -1.3615  0.5071 -0.2702
  643SOL    HW2 2571   2.106   0.247   1.594  0.3086 -0.4654 -0.6706
  643SOL     MW 2572   2.072   0.315   1.638  0.0033  0.5149 -0.3374
  644SOL     OW 2573   2.656   1.891   0.984 -0.6068 -0.4516 -0.4038
  644SOL    HW1 2574   2.639   1.821   1.049 -2.9370 -0.3554  0.1820
  644SOL    HW2 2575   2.588   1.953   0.995  0.3613  0.4276  0.4107
  644SOL     MW 2576   2.645   1.890   0.994 -0.7865 -0.3229 -0.2191
  645SOL     OW 2577   2.769   0.879   0.723 -0.0328 -0.2127  0.5933
  645SOL    HW1 2578   2.837   0.849   0.785  0.0010 -2.6370  1.0746
  645SOL    HW2 2579   2.686   0.838   0.754  4.1481 -1.3934  1.4222
  645SOL     MW 2580   2.767   0.869   0.735  0.5233 -0.6883  0.7662
  646SOL     OW 2581   0.174   2.242   0.855 -0.3233  0.0264 -0.0024
  646SOL    HW1 2582   0.183   2.143   0.842  0.0820 -0.2200  0.2394
  646SOL    HW2 2583   0.126   2.269   0.777 -0.0937 -1.1255  0.3542
  646SOL     MW 2584   0.169   2.233   0.843 -0.2395 -0.1581  0.0765
  647SOL     OW 2585   2.757   0.516   3.015  0.6977  0.5607 -0.4342
  647SOL    HW1 2586   2.696   0.441   3.019 -1.6368 -0.8200 -0.6228
  647SOL    HW2 2587   2.717   0.596   3.056  1.3809  0.7651  1.4017
  647SOL     MW 2588   2.744   0.516   3.021  0.4798  0.4055 -0.2169
  648SOL     OW 2589   2.248   0.660   1.127 -0.5517 -0.4004  0.1886
  648SOL    HW1 2590   2.242   0.579   1.174  1.1394  2.4472 -0.4505
  648SOL    HW2 2591   2.180   0.720   1.152 -0.7331 -0.0706  0.7380
  648SOL     MW 2592   2.238   0.658   1.137 -0.3525  0.0189  0.1767
  649SOL     OW 2593   2.428   2.712   1.256 -0.7397 -0.0788 -0.2715
  649SOL    HW1 2594   2.515   2.756   1.249 -0.8068 -2.9326  1.4528
  649SOL    HW2 2595   2.451   2.620   1.264  0.5872  1.4615  4.2794
  649SOL     MW 2596   2.442   2.705   1.256 -0.5735 -0.2521  0.5565
  650SOL     OW 2597   2.779   0.228   0.570 -0.0376  0.3822 -0.6694
  650SOL    HW1 2598   2.785   0.324   0.564  0.3515 -0.0964 -0.5944
  650SOL    HW2 2599   2.856   0.203   0.617 -1.4778  0.8179  0.7119
  650SOL     MW 2600   2.790   0.238   0.576 -0.1763  0.3766 -0.4773
  651SOL     OW 2601   0.008   0.443   1.027  0.7709 -0.3295  0.1518
  651SOL    HW1 2602   0.052   0.501   0.958  1.0382 -1.0170 -0.1234
  651SOL    HW2 2603  -0.065   0.495   1.061 -1.0199 -0.8004  2.3590
  651SOL     MW 2604   0.004   0.458   1.022  0.5699 -0.4823  0.4067
  652SOL     OW 2605   2.400   1.414   3.010 -0.1569  0.0402  0.1704
  652SOL    HW1 2606   2.460   1.431   2.935  0.3444 -0.9825  0.5341
  652SOL    HW2 2607   2.338   1.487   3.007  0.4237  0.8594  0.1067
  652SOL     MW 2608   2.400   1.426   3.000 -0.0142  0.0134  0.2100
  653SOL     OW 2609   1.841   0.328   0.277 -0.4117 -0.3058  0.3030
  653SOL    HW1 2610   1.831   0.253   0.213  0.4038 -1.1950  1.1600
  653SOL    HW2 2611   1.933   0.353   0.278 -0.7881 -0.7153 -1.5277
  653SOL     MW 2612   1.852   0.321   0.269 -0.3538 -0.4772  0.1746
  654SOL     OW 2613   2.425   0.978   0.784 -0.2481  0.5848  0.2908
  654SOL    HW1 2614   2.375   0.972   0.702  0.8105 -1.7905  0.6602
  654SOL    HW2 2615   2.449   0.888   0.811  0.6846 -2.9599  0.9166
  654SOL     MW 2616   2.422   0.965   0.777  0.0146 -0.1963  0.4221
  655SOL     OW 2617   2.901   0.921   0.368 -0.4592 -0.2937 -0.8912
  655SOL    HW1 2618   2.891   0.985   0.441  0.6494 -0.3934  0.3187
  655SOL    HW2 2619   2.892   0.838   0.416  2.4166 -0.3299 -2.5208
  655SOL     MW 2620   2.898   0.918   0.384  0.0665 -0.3117 -0.9466
  656SOL     OW 2621   1.832   2.652   1.408 -0.0115 -0.3073  0.0759
  656SOL    HW1 2622   1.821   2.731   1.357  0.0588 -0.4098 -0.9025
  656SOL    HW2 2623   1.875   2.587   1.352  0.7174 -1.9230  0.7952
  656SOL     MW 2624   1.836   2.654   1.394  0.0940 -0.5340  0.0417
  657SOL     OW 2625   0.059   1.815   1.194 -0.0089 -0.1172 -0.6351
  657SOL    HW1 2626   0.143   1.859   1.173  0.7934 -0.9776 -2.6361
  657SOL    HW2 2627   0.067   1.724   1.160 -1.0416 -0.1353 -1.2530
  657SOL     MW 2628   0.071   1.809   1.187 -0.0393 -0.2331 -0.9806
  658SOL     OW 2629   2.716   1.342   0.240 -0.5438  0.0026 -0.3133
  658SOL    HW1 2630   2.686   1.260   0.294 -1.9618 -0.5047  3.4543
  658SOL    HW2 2631   2.718   1.419   0.291 -2.0991  0.2187 -0.9977
  658SOL     MW 2632   2.713   1.341   0.254 -0.9361 -0.0358  0.0935
  659SOL     OW 2633   2.157   1.467   1.025 -0.4296 -0.3703  0.3573
  659SOL    HW1 2634   2.245   1.463   0.999 -0.5683  1.7075 -0.6747
  659SOL    HW2 2635   2.153   1.451   1.122  0.0349 -0.7176 -1.1958
  659SOL     MW 2636   2.168   1.464   1.034 -0.3866 -0.1419  0.0162
  660SOL     OW 2637   2.097   1.551   1.656  0.2013  1.3264 -0.3497
  660SOL    HW1 2638   2.121   1.565   1.749  1.2584  3.8320 -0.1360
  660SOL    HW2 2639   2.028   1.487   1.650  0.5070  0.5122  0.5891
  660SOL     MW 2640   2.091   1.545   1.668  0.3811  1.5496 -0.1976
  661SOL     OW 2641   2.418   0.981   0.259 -0.0604  0.1633  0.0450
  661SOL    HW1 2642   2.503   1.029   0.284 -0.9347  0.8250 -1.9570
  661SOL    HW2 2643   2.434   0.890   0.303  0.3591 -0.9070  1.1878
  661SOL     MW 2644   2.431   0.975   0.268 -0.1204  0.1094 -0.0684
  662SOL     OW 2645   2.568   2.954   0.874 -0.1003 -0.5609 -0.0157
  662SOL    HW1 2646   2.495   3.008   0.912  1.5570  0.0747  0.0082
  662SOL    HW2 2647   2.597   3.006   0.793 -1.2774 -0.6012 -0.5540
  662SOL     MW 2648   2.562   2.968   0.869 -0.0370 -0.4824 -0.0836
  663SOL     OW 2649   2.699   1.570   0.442 -0.1513  0.8378  0.2263
  663SOL    HW1 2650   2.733   1.646   0.404  1.1958 -1.1338 -0.7497
  663SOL    HW2 2651   2.758   1.554   0.521 -0.0704  0.4962 -3.1472
  663SOL     MW 2652   2.712   1.578   0.447  0.0371  0.5326 -0.3476
  664SOL     OW 2653   2.522   1.475   1.509 -0.1949  0.1011 -0.1797
  664SOL    HW1 2654   2.515   1.567   1.488 -1.3042 -0.1600 -1.7466
  664SOL    HW2 2655   2.436   1.431   1.539  2.0441 -2.7336  1.2175
  664SOL     MW 2656   2.510   1.481   1.511 -0.0458 -0.3074 -0.2021
  665SOL     OW 2657   2.860   0.833   2.119  0.1012  0.5224  0.1972
  665SOL    HW1 2658   2.824   0.865   2.032 -0.4436 -3.8235 -1.3932
  665SOL    HW2 2659   2.920   0.766   2.090 -0.7601 -0.1464  0.9836
  665SOL     MW 2660   2.863   0.828   2.104 -0.0844 -0.1392  0.0911
  666SOL     OW 2661   2.772   3.020   1.694  0.4265  0.0644  0.1405
  666SOL    HW1 2662   2.796   3.015   1.603 -1.3077  0.7316  0.4330
  666SOL    HW2 2663   2.706   2.951   1.708  1.2383 -1.1518  2.1344
  666SOL     MW 2664   2.766   3.010   1.684  0.3048 -0.0081  0.4421
  667SOL     OW 2665   1.983   2.729   1.734  0.6754  0.1845  0.3594
  667SOL    HW1 2666   2.006   2.693   1.819 -0.4533  1.1390  0.2449
  667SOL    HW2 2667   2.063   2.775   1.714 -0.6581  0.3089  0.7400
  667SOL     MW 2668   1.997   2.730   1.743  0.3505  0.3268  0.3945
  668SOL     OW 2669   2.782   0.558   0.888 -0.4261 -0.2515 -0.9711
  668SOL    HW1 2670   2.834   0.592   0.970  2.5334 -0.3803  0.7160
  668SOL    HW2 2671   2.707   0.610   0.883  0.6411 -0.3033 -0.6034
  668SOL     MW 2672   2.779   0.569   0.898  0.1052 -0.2754 -0.7000
  669SOL     OW 2673   0.215   0.999   0.723 -0.0510  0.1940 -0.1735
  669SOL    HW1 2674   0.148   1.051   0.770 -0.9629 -3.2706 -0.7582
  669SOL    HW2 2675   0.298   1.050   0.697 -0.4870 -1.8437 -2.5165
  669SOL     MW 2676   0.217   1.012   0.726 -0.2289 -0.5320 -0.5598
  670SOL     OW 2677   2.899   0.335   0.245 -0.1925  0.0159  0.6983
  670SOL    HW1 2678   2.905   0.279   0.163 -1.1419 -2.7461  1.2221
  670SOL    HW2 2679   2.926   0.423   0.229  1.9689 -0.7314  1.3359
  670SOL     MW 2680   2.904   0.339   0.232 -0.0326 -0.4471  0.8515
  671SOL     OW 2681   1.999   3.027   1.527  0.0176  0.3234 -0.1950
  671SOL    HW1 2682   1.940   2.987   1.462  0.9579  0.2760 -3.2095
  671SOL    HW2 2683   1.945   3.049   1.607  1.8044  0.0684  0.7859
  671SOL     MW 2684   1.984   3.025   1.529  0.3774  0.2835 -0.4633
  672SOL     OW 2685   1.853   1.740   1.312  1.0409  0.3709  0.3055
  672SOL    HW1 2686   1.868   1.815   1.379  0.3433 -0.8093 -1.0014
  672SOL    HW2 2687   1.885   1.772   1.222  1.0405 -1.5816 -0.1455
  672SOL     MW 2688   1.859   1.754   1.309  0.9488 -0.0424  0.0736
  673SOL     OW 2689   2.789   1.083   0.576  0.1854  0.0651  0.1158
  673SOL    HW1 2690   2.778   1.003   0.644 -0.9154 -0.0752  0.6067
  673SOL    HW2 2691   2.868   1.134   0.601 -0.6541  4.3056 -0.0476
  673SOL     MW 2692   2.798   1.079   0.588 -0.0706  0.6061  0.1590
  674SOL     OW 2693   2.494   3.092   1.250 -1.1045  0.3527  0.5119
  674SOL    HW1 2694   2.473   3.098   1.160 -0.4253  0.0729 -1.3326
  674SOL    HW2 2695   2.538   3.009   1.269 -0.1763  1.9305  1.5526
  674SOL     MW 2696   2.497   3.082   1.240 -0.8924  0.5240  0.4058
  675SOL     OW 2697   3.025   0.901   1.106  0.1411 -0.1454  0.6649
  675SOL    HW1 2698   3.105   0.902   1.163  2.2151 -0.6898 -2.2663
  675SOL    HW2 2699   3.059   0.942   1.023  3.6097  0.2813 -0.9314
  675SOL     MW 2700   3.040   0.906   1.102  0.8724 -0.1609  0.0676
  676SOL     OW 2701   2.903   1.464   1.702 -0.0963 -0.4201 -0.1482
  676SOL    HW1 2702   2.869   1.380   1.670  0.1629  1.6108 -2.3291
  676SOL    HW2 2703   2.913   1.457   1.806 -0.3663  1.1570  3.4557
  676SOL     MW 2704   2.900   1.452   1.712 -0.0977  0.0559  0.0395
  677SOL     OW 2705   2.432   0.572   1.974  0.7075  0.6762 -0.2841
  677SOL    HW1 2706   2.386   0.503   1.919 -0.5523 -2.5701 -0.7434
  677SOL    HW2 2707   2.373   0.645   1.966 -0.8838 -3.1807 -1.6934
  677SOL     MW 2708   2.418   0.573   1.966  0.3314 -0.2610 -0.5306
  678SOL     OW 2709   2.389   1.630   0.317  0.3750 -0.0846  0.2957
  678SOL    HW1 2710   2.299   1.621   0.344  2.3308 -2.6681  1.5105
  678SOL    HW2 2711   2.396   1.565   0.245  3.0920 -0.3582  2.4722
  678SOL     MW 2712   2.378   1.621   0.311  0.9915 -0.4616  0.7431
  679SOL     OW 2713   2.265   0.422   1.260 -0.1938 -0.2048  0.0057
  679SOL    HW1 2714   2.235   0.340   1.222  1.1234  0.2295  0.3643
  679SOL    HW2 2715   2.229   0.428   1.345  1.5924 -1.4063 -2.3852
  679SOL     MW 2716   2.256   0.412   1.266  0.2157 -0.3060 -0.2625
  680SOL     OW 2717   2.429   0.104   1.503  0.6654  0.0177  0.0475
  680SOL    HW1 2718   2.335   0.079   1.526 -1.8077 -2.8304  1.2303
  680SOL    HW2 2719   2.437   0.084   1.412  1.0949 -0.1750  2.7437
  680SOL     MW 2720   2.417   0.098   1.494  0.3958 -0.3835  0.5593
  681SOL     OW 2721   0.253   0.607   1.482 -0.4760  0.0728 -0.2521
  681SOL    HW1 2722   0.246   0.528   1.539 -0.6455  1.4370 -2.6032
  681SOL    HW2 2723   0.229   0.577   1.390 -0.5423  4.0522 -2.9889
  681SOL     MW 2724   0.249   0.592   1.477 -0.5071  0.7778 -0.9234
  682SOL     OW 2725   0.086   2.860   1.542  0.1825 -1.1644  0.0235
  682SOL    HW1 2726   0.125   2.943   1.527  0.2911  0.8446  0.0945
  682SOL    HW2 2727   0.016   2.866   1.602  2.3934 -1.4967  0.8370
  682SOL     MW 2728   0.082   2.872   1.548  0.4886 -0.9432  0.1402
  683SOL     OW 2729   2.079   0.806   3.003  0.2323 -0.4217  0.2866
  683SOL    HW1 2730   2.046   0.731   3.049  0.7531  0.4623 -0.9652
  683SOL    HW2 2731   2.022   0.875   3.033 -0.4549 -4.2902  1.8678
  683SOL     MW 2732   2.067   0.805   3.013  0.2103 -0.8155  0.3301
  684SOL     OW 2733   2.088   1.736   0.632 -0.9721 -0.1199  0.0273
  684SOL    HW1 2734   2.105   1.682   0.549  1.8959  1.5362  0.6091
  684SOL    HW2 2735   2.073   1.667   0.700 -1.1002 -1.6821 -0.5715
  684SOL     MW 2736   2.088   1.720   0.630 -0.6106 -0.1075  0.0250
  685SOL     OW 2737   2.683   1.696   1.174  0.0627  0.2413  0.1485
  685SOL    HW1 2738   2.725   1.677   1.258  0.6418  1.7776  2.6655
  685SOL    HW2 2739   2.621   1.623   1.172  1.2150 -0.0617 -1.3175
  685SOL     MW 2740   2.680   1.684   1.184  0.2911  0.4040  0.2872
  686SOL     OW 2741   2.893   0.643   1.606 -0.4265  0.3911  0.4881
  686SOL    HW1 2742   2.905   0.612   1.691 -0.9887  2.1311 -2.1431
  686SOL    HW2 2743   2.979   0.680   1.582  0.5635 -1.1005  2.5875
  686SOL     MW 2744   2.906   0.644   1.614 -0.3701  0.4239  0.4179
  687SOL     OW 2745   2.129   0.192   1.120 -0.4185  0.4572  0.4737
  687SOL    HW1 2746   2.204   0.159   1.066 -0.8126  1.9921 -0.1852
  687SOL    HW2 2747   2.086   0.265   1.071 -0.7025 -1.4134  1.0629
  687SOL     MW 2748   2.133   0.197   1.106 -0.5079  0.4129  0.4645
  688SOL     OW 2749   2.433   0.589   1.397  0.6042 -0.2371  0.0868
  688SOL    HW1 2750   2.406   0.530   1.324  2.5451  0.2282 -0.6466
  688SOL    HW2 2751   2.351   0.598   1.456 -0.1177  0.8216  0.7162
  688SOL     MW 2752   2.419   0.583   1.395  0.7650 -0.0360  0.0731
  689SOL     OW 2753   2.507   0.760   2.983  0.2098 -0.5264  0.0347
  689SOL    HW1 2754   2.445   0.829   3.007 -1.4525  0.6095 -1.2716
  689SOL    HW2 2755   2.566   0.756   3.055 -1.5800 -0.7538 -1.0897
  689SOL     MW 2756   2.507   0.769   2.995 -0.2457 -0.4065 -0.2860
  690SOL     OW 2757   2.028   0.865   1.839 -0.8607  0.2902 -0.0063
  690SOL    HW1 2758   2.019   0.773   1.859  2.8332 -0.3606 -0.3084
  690SOL    HW2 2759   2.061   0.872   1.746 -2.6646  0.0795 -0.2045
  690SOL     MW 2760   2.031   0.854   1.829 -0.6113  0.1766 -0.0723
  691SOL     OW 2761   2.403   0.297   0.873  0.3814  0.2687 -0.0185
  691SOL    HW1 2762   2.485   0.320   0.913 -0.8004 -0.8843  2.7983
  691SOL    HW2 2763   2.349   0.364   0.918 -1.2624 -0.2377  0.7166
  691SOL     MW 2764   2.406   0.309   0.884  0.0086  0.0498  0.4501
  692SOL     OW 2765   2.873   1.594   1.440 -0.3592  0.0779 -0.1379
  692SOL    HW1 2766   2.902   1.579   1.533  0.1614  0.4390  1.5346
  692SOL    HW2 2767   2.898   1.687   1.421  0.6171 -1.2095  1.0379
  692SOL     MW 2768   2.880   1.604   1.450 -0.1617 -0.0443  0.2379
  693SOL     OW 2769   2.353   0.405   0.044 -0.1110 -0.3949 -0.4028
  693SOL    HW1 2770   2.268   0.360   0.014 -0.4457 -2.6985  2.1731
  693SOL    HW2 2771   2.321   0.483   0.092  0.9267 -3.3504 -0.0489
  693SOL     MW 2772   2.337   0.409   0.046 -0.0182 -1.0888 -0.0162
  694SOL     OW 2773   1.891   1.199   1.156  0.6712 -0.8029  0.3018
  694SOL    HW1 2774   1.990   1.184   1.158  4.6894  0.2207 -2.2284
  694SOL    HW2 2775   1.861   1.114   1.170  1.2168  1.3863 -1.0587
  694SOL     MW 2776   1.900   1.186   1.158  1.2734 -0.3790 -0.2115
  695SOL     OW 2777   2.971   1.406   1.268 -0.0175  0.2625  0.4925
  695SOL    HW1 2778   2.943   1.433   1.177 -3.1663 -0.9959 -3.8678
  695SOL    HW2 2779   2.927   1.466   1.333 -1.8237 -1.4874 -1.7893
  695SOL     MW 2780   2.962   1.417   1.265 -0.6713 -0.1344 -0.3839
  696SOL     OW 2781   2.051   1.444   0.781 -0.6945 -0.3910  0.3742
  696SOL    HW1 2782   2.083   1.448   0.870 -1.4237  3.3713 -0.5772
  696SOL    HW2 2783   1.985   1.372   0.778 -0.5460 -1.4676 -0.7621
  696SOL     MW 2784   2.047   1.435   0.793 -0.7711 -0.0366  0.0988
  697SOL     OW 2785   2.927   1.068   2.235  0.4990 -0.6317  0.0291
  697SOL    HW1 2786   2.844   1.113   2.262 -2.1655  2.2426  2.5874
  697SOL    HW2 2787   2.898   0.982   2.204 -2.2940  1.4690 -1.3525
  697SOL     MW 2788   2.912   1.063   2.235 -0.2211  0.0247  0.1844
  698SOL     OW 2789   2.576   0.310   3.039  0.4093  0.2599 -0.3160
  698SOL    HW1 2790   2.497   0.342   3.084 -0.4626 -0.5673 -0.5854
  698SOL    HW2 2791   2.626   0.260   3.108  1.0921  0.5571  2.7456
  698SOL     MW 2792   2.572   0.308   3.054  0.3844  0.1900  0.0524
  699SOL     OW 2793   1.892   1.624   2.086  0.2492 -0.3672 -0.1893
  699SOL    HW1 2794   1.864   1.537   2.055  0.5206  0.1400 -0.0504
  699SOL    HW2 2795   1.982   1.623   2.059  0.9976  4.5803 -0.1225
  699SOL     MW 2796   1.900   1.612   2.078  0.3837  0.3525 -0.1621
  700SOL     OW 2797   2.684   0.823   1.579 -0.0720 -0.1170  0.5789
  700SOL    HW1 2798   2.696   0.894   1.517 -2.1342  1.4372  1.2683
  700SOL    HW2 2799   2.749   0.760   1.559 -0.2725  3.1320 -0.8124
  700SOL     MW 2800   2.694   0.824   1.568 -0.3705  0.5167  0.4863
  701SOL     OW 2801   1.698   1.135   2.497  0.7856 -0.1602  0.0732
  701SOL    HW1 2802   1.774   1.088   2.533 -1.1739  0.6478  0.6536
  701SOL    HW2 2803   1.680   1.200   2.560 -0.2155 -2.7127  0.4884
  701SOL     MW 2804   1.706   1.137   2.510  0.3950 -0.3904  0.2045
  702SOL     OW 2805   2.122   0.443   0.758 -1.0112  0.4827 -0.5118
  702SOL    HW1 2806   2.123   0.356   0.720  0.0096  1.1191 -2.5855
  702SOL    HW2 2807   2.212   0.478   0.735  0.3618 -0.7511 -0.8571
  702SOL     MW 2808   2.134   0.436   0.750 -0.6953  0.4039 -0.8309
  703SOL     OW 2809   2.724   1.233   0.952 -0.0852  0.3609 -0.1976
  703SOL    HW1 2810   2.683   1.218   0.869  0.7091  2.4704  0.6655
  703SOL    HW2 2811   2.732   1.157   1.011 -2.2649  0.4343  1.3787
  703SOL     MW 2812   2.719   1.221   0.949 -0.2680  0.6489  0.1242
  704SOL     OW 2813   3.075   1.227   0.138  0.0455  0.3634  0.1327
  704SOL    HW1 2814   2.982   1.241   0.105 -0.6147 -2.1383 -1.8528
  704SOL    HW2 2815   3.069   1.246   0.232  1.3109 -0.8391 -1.7067
  704SOL     MW 2816   3.062   1.231   0.146  0.1254 -0.1253 -0.3719
  705SOL     OW 2817   2.065   1.555   1.303 -0.2409 -0.4550 -0.3659
  705SOL    HW1 2818   2.002   1.622   1.305  1.2299 -0.0534  0.4140
  705SOL    HW2 2819   2.101   1.560   1.393  0.0554  2.2623  0.3438
  705SOL     MW 2820   2.062   1.564   1.315 -0.0077 -0.0435 -0.1694
  706SOL     OW 2821   2.997   1.233   0.646  0.1265 -0.4294  0.2840
  706SOL    HW1 2822   3.037   1.240   0.553 -1.0247  0.2906 -2.1706
  706SOL    HW2 2823   2.961   1.320   0.660  1.1859  0.0606 -0.0193
  706SOL     MW 2824   2.997   1.245   0.636  0.1144 -0.2697 -0.0799
  707SOL     OW 2825   2.388   0.037   0.961  0.0165 -0.0017 -0.0269
  707SOL    HW1 2826   2.400   0.128   0.935  1.4784  1.1765 -2.1512
  707SOL    HW2 2827   2.308   0.007   0.910 -2.5090 -0.9765 -1.0006
  707SOL     MW 2828   2.379   0.045   0.951 -0.1239  0.0251 -0.4357
  708SOL     OW 2829   2.418   1.381   0.181 -0.3801 -0.2653  0.0560
  708SOL    HW1 2830   2.506   1.350   0.196 -0.6629  2.0123 -0.3516
  708SOL    HW2 2831   2.429   1.392   0.084 -0.7706 -0.0449  0.6582
  708SOL     MW 2832   2.431   1.378   0.170 -0.4689  0.0643  0.0816
  709SOL     OW 2833   1.755   1.615   0.233  0.4665  0.7144 -0.0190
  709SOL    HW1 2834   1.739   1.648   0.145  0.3576  2.9438  1.1775
  709SOL    HW2 2835   1.690   1.549   0.251 -2.0671 -0.1026  1.6474
  709SOL     MW 2836   1.744   1.610   0.224  0.1178  0.9008  0.3587
  710SOL     OW 2837   2.151   1.155   1.176 -0.0268  0.1390 -0.3468
  710SOL    HW1 2838   2.203   1.125   1.105 -2.7158 -0.3798  2.2207
  710SOL    HW2 2839   2.166   1.089   1.247  0.0948  1.0645 -1.1834
  710SOL     MW 2840   2.160   1.142   1.176 -0.3655  0.1927 -0.1184
  711SOL     OW 2841   2.412   0.167   1.769 -0.1803 -0.4572  0.1910
  711SOL    HW1 2842   2.497   0.133   1.815  0.9865  1.9699  0.3686
  711SOL    HW2 2843   2.432   0.148   1.673  3.5211  0.7568 -0.8817
  711SOL     MW 2844   2.426   0.160   1.763  0.4621  0.0232  0.0729
  712SOL     OW 2845   1.901   0.609   0.012 -0.3215  0.2388 -0.5547
  712SOL    HW1 2846   1.845   0.658  -0.046 -0.7955 -1.8167  1.0910
  712SOL    HW2 2847   1.881   0.643   0.096  3.1127  2.3247 -0.7063
  712SOL     MW 2848   1.891   0.620   0.015  0.0690  0.2428 -0.3576
  713SOL     OW 2849   2.521   0.694   1.085  0.2100  0.1354 -0.2122
  713SOL    HW1 2850   2.568   0.681   1.163  1.0634 -1.7822 -0.5254
  713SOL    HW2 2851   2.427   0.700   1.116 -1.2137 -0.8976  0.6674
  713SOL     MW 2852   2.515   0.693   1.100  0.1348 -0.2539 -0.1374
  714SOL     OW 2853   2.227   0.195   1.974  0.1853 -0.5790 -0.4718
  714SOL    HW1 2854   2.291   0.169   2.038  1.2114 -0.3851  0.5143
  714SOL    HW2 2855   2.272   0.186   1.889 -1.2723  0.5219 -1.2007
  714SOL     MW 2856   2.241   0.190   1.971  0.1284 -0.4081 -0.4379
  715SOL     OW 2857   1.809   2.038   1.766  0.0679 -0.2140 -0.2928
  715SOL    HW1 2858   1.893   2.075   1.740 -0.6946 -0.7701 -2.3349
  715SOL    HW2 2859   1.814   1.952   1.820 -1.3276 -2.1493  0.7125
  715SOL     MW 2860   1.821   2.032   1.770 -0.2168 -0.5427 -0.4296
  716SOL     OW 2861   2.363   0.562   0.665  0.9274  0.7477 -0.1138
  716SOL    HW1 2862   2.423   0.494   0.627  1.6098 -1.1107  0.9594
  716SOL    HW2 2863   2.287   0.568   0.596  2.5797 -0.9956  0.5078
  716SOL     MW 2864   2.361   0.554   0.651  1.2355  0.2725  0.1098
  717SOL     OW 2865   2.829   1.575   2.849  0.2443  0.5792 -0.5614
  717SOL    HW1 2866   2.920   1.579   2.867 -3.8787  0.0192  0.8010
  717SOL    HW2 2867   2.802   1.657   2.879 -0.3562 -1.2788 -1.6098
  717SOL     MW 2868   2.837   1.586   2.856 -0.3789  0.2601 -0.5200
  718SOL     OW 2869   2.652   1.344   1.311  0.0069 -0.1091 -0.2560
  718SOL    HW1 2870   2.626   1.397   1.385 -1.4630  1.4565 -1.8147
  718SOL    HW2 2871   2.747   1.364   1.301  0.1454 -1.6364 -2.5144
  718SOL     MW 2872   2.661   1.354   1.320 -0.1687 -0.1040 -0.7596
  719SOL     OW 2873   2.197   1.289   0.589  0.4965  0.5491  0.0542
  719SOL    HW1 2874   2.276   1.329   0.581 -0.1941 -1.9504  2.3799
  719SOL    HW2 2875   2.167   1.340   0.664  0.8099  1.0209  0.0638
  719SOL     MW 2876   2.203   1.301   0.598  0.4467  0.2815  0.3623
  720SOL     OW 2877   2.816   1.218   0.021  0.2587  0.2166  0.1040
  720SOL    HW1 2878   2.810   1.128   0.061  2.1261 -0.7237 -1.3408
  720SOL    HW2 2879   2.767   1.272   0.085 -0.1457  0.7804  0.6795
  720SOL     MW 2880   2.809   1.213   0.035  0.4517  0.1669 -0.0107
  721SOL     OW 2881   2.472   0.865   1.354  0.2119  0.2814  0.3668
  721SOL    HW1 2882   2.431   0.779   1.351 -2.7402  1.1668 -2.0406
  721SOL    HW2 2883   2.510   0.875   1.435  1.0253  0.7891 -0.1558
  721SOL     MW 2884   2.472   0.855   1.364 -0.0703  0.4652 -0.0198
  722SOL     OW 2885   2.611   1.142   0.367 -0.1222  0.2840  0.6094
  722SOL    HW1 2886   2.540   1.199   0.403 -0.3366  0.1851 -3.3374
  722SOL    HW2 2887   2.680   1.139   0.436  0.1270 -0.0018 -2.2938
  722SOL     MW 2888   2.611   1.149   0.381 -0.1176  0.2332 -0.2944
  723SOL     OW 2889   2.288   1.372   1.567  0.3842 -0.2550 -0.1978
  723SOL    HW1 2890   2.304   1.361   1.468 -2.2144 -1.0861 -1.0145
  723SOL    HW2 2891   2.229   1.444   1.590 -3.9094  0.9858 -1.5415
  723SOL     MW 2892   2.282   1.380   1.557 -0.5252 -0.2009 -0.4828
  724SOL     OW 2893   2.492   0.302   0.606 -0.0411  0.2607  0.1045
  724SOL    HW1 2894   2.462   0.286   0.697  1.3246 -2.5211 -0.1629
  724SOL    HW2 2895   2.586   0.280   0.609 -0.8048 -0.8761 -2.0769
  724SOL     MW 2896   2.500   0.297   0.618  0.0383 -0.2563 -0.2186
  725SOL     OW 2897   2.632   0.408   1.236 -0.1361  0.2748  0.2391
  725SOL    HW1 2898   2.696   0.458   1.293  0.3471 -2.1365 -0.3033
  725SOL    HW2 2899   2.630   0.321   1.280 -0.0133 -1.1796  0.4239
  725SOL     MW 2900   2.640   0.403   1.250 -0.0562 -0.2352  0.1919
  726SOL     OW 2901   2.514   2.487   0.469 -0.2374  0.1497 -0.5876
  726SOL    HW1 2902   2.494   2.560   0.411 -0.0477  0.3366  0.4771
  726SOL    HW2 2903   2.488   2.518   0.555 -2.4676 -0.3509  0.6672
  726SOL     MW 2904   2.508   2.501   0.473 -0.5067  0.1083 -0.2816
  727SOL     OW 2905   2.865   0.304   1.729 -0.0899  0.0542 -0.4531
  727SOL    HW1 2906   2.811   0.280   1.657  0.1117 -0.9622  1.4881
  727SOL    HW2 2907   2.821   0.268   1.812 -1.9349  0.0906  0.9789
  727SOL     MW 2908   2.852   0.296   1.731 -0.3067 -0.0751 -0.0080
  728SOL     OW 2909   2.846   1.188   2.853 -0.0028 -0.2407  0.0161
  728SOL    HW1 2910   2.826   1.256   2.786  1.8447  2.9192 -1.1135
  728SOL    HW2 2911   2.817   1.220   2.940  2.4903  0.6588 -1.8177
  728SOL     MW 2912   2.839   1.201   2.856  0.5699  0.2949 -0.3749
  729SOL     OW 2913   2.496   1.495   1.094 -0.0137  0.2416  0.4224
  729SOL    HW1 2914   2.567   1.434   1.118 -0.3166 -2.5017  1.8713
  729SOL    HW2 2915   2.478   1.481   0.999  0.0133  0.2851 -0.2728
  729SOL     MW 2916   2.503   1.485   1.085 -0.0501 -0.1146  0.5219
  730SOL     OW 2917   2.205   1.187   0.183  0.5423 -0.1734 -0.6241
  730SOL    HW1 2918   2.269   1.117   0.185 -1.7761  1.6579  0.5809
  730SOL    HW2 2919   2.258   1.264   0.181 -0.5627  0.4849  0.5670
  730SOL     MW 2920   2.221   1.188   0.183  0.0906  0.1551 -0.3079
  731SOL     OW 2921   2.742   2.084   2.865 -0.0864 -0.4465 -0.0912
  731SOL    HW1 2922   2.661   2.053   2.813  1.3781 -2.2388 -0.3807
  731SOL    HW2 2923   2.814   2.067   2.804 -1.8812 -1.9661 -1.4836
  731SOL     MW 2924   2.740   2.078   2.850 -0.1300 -0.8834 -0.3131
  732SOL     OW 2925   2.235   0.992   1.363  1.0151 -0.1836  0.1023
  732SOL    HW1 2926   2.220   0.938   1.445 -0.4019 -1.7760  1.0542
  732SOL    HW2 2927   2.317   0.966   1.323 -2.3724 -0.6671  0.4487
  732SOL     MW 2928   2.244   0.981   1.368  0.3812 -0.4575  0.2736
  733SOL     OW 2929   2.369   2.828   3.024 -0.0576 -0.4526 -0.2958
  733SOL    HW1 2930   2.287   2.873   3.058  0.8953  0.1941  0.2475
  733SOL    HW2 2931   2.350   2.731   3.029  0.2393  0.5584  1.0319
  733SOL     MW 2932   2.356   2.821   3.029  0.1073 -0.2339 -0.0490
  734SOL     OW 2933   1.598   0.256   2.552 -0.0666  0.0893  0.4593
  734SOL    HW1 2934   1.554   0.223   2.631 -0.7339 -1.0904  0.8155
  734SOL    HW2 2935   1.556   0.220   2.476 -1.0941  2.8623 -0.5743
  734SOL     MW 2936   1.587   0.247   2.552 -0.2903  0.2995  0.3699
  735SOL     OW 2937   2.996   0.941   2.677 -0.5989  0.0854 -0.2882
  735SOL    HW1 2938   2.994   0.841   2.661  0.6098 -1.0306  0.8739
  735SOL    HW2 2939   2.991   0.949   2.775 -0.0350 -0.9556  1.0815
  735SOL     MW 2940   2.995   0.929   2.688 -0.3650 -0.1992  0.0459
  736SOL     OW 2941   0.135   0.571   2.597  0.1800 -0.2061 -0.1840
  736SOL    HW1 2942   0.153   0.623   2.517 -0.5538 -0.2396 -0.2122
  736SOL    HW2 2943   0.138   0.477   2.565  1.0378  0.0702 -0.7429
  736SOL     MW 2944   0.138   0.566   2.582  0.1963 -0.1741 -0.2615
  737SOL     OW 2945   2.979   0.693   2.622  0.3551 -0.0204  0.4385
  737SOL    HW1 2946   2.908   0.656   2.558 -1.8676 -0.9128 -0.3535
  737SOL    HW2 2947   3.060   0.651   2.602 -1.8463  0.4468 -2.2065
  737SOL     MW 2948   2.980   0.683   2.611 -0.2286 -0.0765 -0.0150
  738SOL     OW 2949   0.149   0.508   1.880 -0.5374 -0.4287 -0.1923
  738SOL    HW1 2950   0.248   0.529   1.884  0.9274 -1.2445  1.0273
  738SOL    HW2 2951   0.130   0.501   1.787  1.8263 -0.9160  0.7151
  738SOL     MW 2952   0.160   0.510   1.868 -0.0323 -0.6006  0.0883
  739SOL     OW 2953   2.481   1.013   2.072 -0.0160 -0.1619  0.1689
  739SOL    HW1 2954   2.443   0.954   2.004  0.8800  0.5906  1.8064
  739SOL    HW2 2955   2.560   0.970   2.094 -0.6826  1.1886  2.1900
  739SOL     MW 2956   2.486   1.000   2.066  0.0143  0.1155  0.6516
  740SOL     OW 2957   0.100   1.852   2.928  0.3476 -0.7254  0.1360
  740SOL    HW1 2958   0.072   1.760   2.917 -1.1576  0.5385 -0.1995
  740SOL    HW2 2959   0.195   1.850   2.938 -0.8829 -0.6016 -1.1528
  740SOL     MW 2960   0.109   1.839   2.927 -0.0133 -0.5423 -0.0783
  741SOL     OW 2961   2.249   1.174   2.740 -0.3500 -0.0850 -0.2085
  741SOL    HW1 2962   2.213   1.219   2.669 -1.7175 -0.6252  1.1957
  741SOL    HW2 2963   2.213   1.205   2.828 -0.1212  0.7135  2.2462
  741SOL     MW 2964   2.239   1.184   2.743 -0.5002 -0.0509  0.3006
  742SOL     OW 2965   1.695   1.209   2.244 -0.0524 -0.4924  0.1299
  742SOL    HW1 2966   1.620   1.151   2.219 -0.3809  1.0099 -2.7060
  742SOL    HW2 2967   1.699   1.194   2.342 -1.0910  1.2610  0.2537
  742SOL     MW 2968   1.685   1.199   2.253 -0.2328 -0.0628 -0.2279
  743SOL     OW 2969   2.497   1.240   2.686 -0.7890 -0.3088  0.4044
  743SOL    HW1 2970   2.413   1.218   2.723 -0.6751  0.9833 -1.8806
  743SOL    HW2 2971   2.555   1.187   2.736 -3.0390 -2.1036 -2.1592
  743SOL     MW 2972   2.493   1.230   2.697 -1.0708 -0.3751 -0.2353
  744SOL     OW 2973   2.740   0.909   1.859 -0.8039 -0.5636 -0.1471
  744SOL    HW1 2974   2.690   0.991   1.851  0.0930 -0.3051 -0.4881
  744SOL    HW2 2975   2.713   0.877   1.773 -2.2314  1.0567  0.4530
  744SOL     MW 2976   2.730   0.916   1.847 -0.8739 -0.3157 -0.1129
  745SOL     OW 2977   1.687   0.504   2.448  0.0097 -0.3152  0.0035
  745SOL    HW1 2978   1.699   0.482   2.352  0.0919  1.0599 -1.0347
  745SOL    HW2 2979   1.648   0.426   2.490  0.0592  1.5682  0.9625
  745SOL     MW 2980   1.684   0.491   2.441  0.0271  0.1147 -0.0070
  746SOL     OW 2981   1.606   1.421   1.647  0.4244 -0.0445  0.3240
  746SOL    HW1 2982   1.696   1.406   1.623 -2.0636 -2.4719 -0.2946
  746SOL    HW2 2983   1.599   1.439   1.738 -1.6575 -0.3716 -1.4864
  746SOL     MW 2984   1.617   1.421   1.656 -0.1785 -0.4079  0.0035
  747SOL     OW 2985   2.599   1.149   1.818  0.2199 -0.4287 -0.1667
  747SOL    HW1 2986   2.500   1.143   1.803 -1.3234 -0.3281  0.5894
  747SOL    HW2 2987   2.608   1.200   1.900  2.8732 -2.4571  1.1870
  747SOL     MW 2988   2.587   1.155   1.827  0.3664 -0.6830  0.1117
  748SOL     OW 2989   0.074   0.075   1.874 -0.3506  0.1755  0.8089
  748SOL    HW1 2990   0.158   0.130   1.868 -2.1117  1.6707  0.8187
  748SOL    HW2 2991   0.020   0.111   1.954 -2.4190 -0.5773  1.8813
  748SOL     MW 2992   0.078   0.087   1.884 -0.8558  0.2735  0.9517
  749SOL     OW 2993   2.477   0.601   2.732  0.4537 -0.2044 -0.1504
  749SOL    HW1 2994   2.522   0.636   2.655  0.3856  0.9286  0.8892
  749SOL    HW2 2995   2.525   0.647   2.805  0.7680 -0.3258  1.0451
  749SOL     MW 2996   2.489   0.611   2.731  0.4862 -0.0709  0.1445
  750SOL     OW 2997   2.063   3.051   1.989  0.0471 -0.3150  0.2430
  750SOL    HW1 2998   2.129   3.119   1.997  1.4923 -0.2709 -2.4457
  750SOL    HW2 2999   2.132   2.982   1.969 -0.0177 -0.9225  1.8061
  750SOL     MW 3000   2.081   3.051   1.987  0.2292 -0.3893  0.0945
  751SOL     OW 3001   0.147   0.341   2.475  0.7643 -0.1846 -0.1830
  751SOL    HW1 3002   0.110   0.260   2.509 -0.4703 -0.4697  0.0758
  751SOL    HW2 3003   0.148   0.334   2.376 -1.8282  0.4737  0.2969
  751SOL     MW 3004   0.142   0.329   2.466  0.2594 -0.1354 -0.0856
  752SOL     OW 3005   2.110   0.760   2.738  0.7572  0.5317  0.1972
  752SOL    HW1 3006   2.181   0.811   2.695  0.6069  1.8214 -1.3865
  752SOL    HW2 3007   2.110   0.773   2.836 -0.3270 -0.4385  1.9455
  752SOL     MW 3008   2.120   0.768   2.745  0.5943  0.5739  0.2189
  753SOL     OW 3009   2.902   0.213   2.392 -0.1236 -0.0900 -0.2266
  753SOL    HW1 3010   2.846   0.142   2.366  0.9300 -1.4819  1.7412
  753SOL    HW2 3011   2.864   0.292   2.347  0.0968  0.7429  1.2567
  753SOL     MW 3012   2.889   0.214   2.383  0.0445 -0.1638  0.2287
  754SOL     OW 3013   2.218   2.986   2.594  0.1582  0.2379  0.3539
  754SOL    HW1 3014   2.251   2.954   2.509 -1.4062 -1.3853 -1.2072
  754SOL    HW2 3015   2.297   2.960   2.655  1.1345  2.8607  0.6532
  754SOL     MW 3016   2.233   2.978   2.590  0.0806  0.3698  0.1874
  755SOL     OW 3017   2.695   1.514   2.440  0.2808 -0.0045  0.5191
  755SOL    HW1 3018   2.717   1.436   2.491 -2.7041 -0.8017 -0.4987
  755SOL    HW2 3019   2.738   1.591   2.488 -1.1332 -0.8016 -0.5504
  755SOL     MW 3020   2.704   1.514   2.453 -0.2996 -0.2149  0.2437
  756SOL     OW 3021   2.199   1.220   2.989  0.9429 -0.0115 -0.3766
  756SOL    HW1 3022   2.260   1.286   3.022  0.3763 -2.6728 -1.3728
  756SOL    HW2 3023   2.249   1.135   3.007 -1.7359  0.0809  1.3743
  756SOL     MW 3024   2.213   1.217   2.996  0.5147 -0.3504 -0.2770
  757SOL     OW 3025   2.158   0.888   1.599  0.0918 -0.0487 -0.5027
  757SOL    HW1 3026   2.171   0.790   1.592 -1.1998  0.9741  1.2396
  757SOL    HW2 3027   2.073   0.908   1.548  0.0066  0.0972 -0.7246
  757SOL     MW 3028   2.148   0.877   1.592 -0.0898  0.1055 -0.3021
  758SOL     OW 3029   2.231   1.844   2.633  0.3108 -0.4209 -0.7897
  758SOL    HW1 3030   2.198   1.869   2.545  0.0631 -1.5241  3.2803
  758SOL    HW2 3031   2.315   1.794   2.624  2.7281  0.6256  2.3366
  758SOL     MW 3032   2.238   1.840   2.620  0.5971 -0.4284  0.1598
  759SOL     OW 3033   1.547   1.274   2.691  0.2935 -0.7939 -0.0054
  759SOL    HW1 3034   1.522   1.368   2.668 -0.2181  0.3412 -0.9436
  759SOL    HW2 3035   1.608   1.281   2.766 -0.5954  0.6215  0.5489
  759SOL     MW 3036   1.552   1.287   2.698  0.1087 -0.4574 -0.0561
  760SOL     OW 3037   2.532   1.986   2.721 -0.3016  0.0249  0.5604
  760SOL    HW1 3038   2.549   1.900   2.677  0.2997  0.2793 -0.9212
  760SOL    HW2 3039   2.538   2.055   2.651  1.4270 -4.9953 -1.1985
  760SOL     MW 3040   2.535   1.984   2.706  0.0058 -0.6039  0.1329
  761SOL     OW 3041   2.150   0.356   2.498  0.4343  0.1872  0.5033
  761SOL    HW1 3042   2.092   0.288   2.533  2.1140  2.3895 -0.3756
  761SOL    HW2 3043   2.186   0.409   2.574 -0.8003  0.6761 -0.1670
  761SOL     MW 3044   2.147   0.354   2.513  0.4930  0.5422  0.2989
  762SOL     OW 3045   3.073   0.170   2.104 -1.1450  0.3003  0.2784
  762SOL    HW1 3046   3.102   0.094   2.163  1.7923  0.3310 -2.1752
  762SOL    HW2 3047   3.059   0.256   2.151  0.1798  0.8964 -5.0851
  762SOL     MW 3048   3.075   0.171   2.118 -0.5826  0.3830 -0.7530
  763SOL     OW 3049   2.329   1.039   2.343 -0.4823 -0.1098 -0.2161
  763SOL    HW1 3050   2.356   0.980   2.271  0.8457 -1.6942  0.6339
  763SOL    HW2 3051   2.410   1.091   2.361  2.0250  2.9039  0.9056
  763SOL     MW 3052   2.343   1.038   2.336  0.0237  0.0788  0.0440
  764SOL     OW 3053   0.507   0.235   2.799 -0.2830 -0.0254 -0.0573
  764SOL    HW1 3054   0.413   0.207   2.785 -2.6106  0.1837 -0.6229
  764SOL    HW2 3055   0.487   0.328   2.810 -1.5173  0.3164 -1.6290
  764SOL     MW 3056   0.492   0.244   2.799 -0.7529  0.0473 -0.3393
  765SOL     OW 3057   2.730   3.075   2.346 -0.3963 -0.4635 -0.1704
  765SOL    HW1 3058   2.672   3.054   2.270  1.7101  1.0283  0.5525
  765SOL    HW2 3059   2.808   3.020   2.318  0.2693  0.4870  1.3680
  765SOL     MW 3060   2.733   3.065   2.332 -0.0306 -0.1412  0.1280
  766SOL     OW 3061   1.852   2.967   2.164  0.0474 -0.0586 -0.0596
  766SOL    HW1 3062   1.904   3.007   2.090  2.0151  0.2522 -1.0584
  766SOL    HW2 3063   1.789   2.906   2.118  1.8714 -1.4245 -0.6722
  766SOL     MW 3064   1.851   2.964   2.148  0.5476 -0.1978 -0.2722
  767SOL     OW 3065   2.690   0.605   2.092  0.1187  0.1822  0.2047
  767SOL    HW1 3066   2.709   0.698   2.104 -1.2331  1.0185 -0.3345
  767SOL    HW2 3067   2.599   0.599   2.051  0.3395  1.4064 -0.3774
  767SOL     MW 3068   2.681   0.617   2.088 -0.0305  0.4540  0.0568
  768SOL     OW 3069   0.000   1.590   2.927  0.0545 -0.0946  0.5523
  768SOL    HW1 3070   0.029   1.558   3.016  1.1537 -0.7685 -1.9376
  768SOL    HW2 3071   0.033   1.515   2.876  0.0824  5.3817  2.6267
  768SOL     MW 3072   0.009   1.576   2.932  0.2032  0.5391  0.4975
  769SOL     OW 3073   2.446   0.689   2.340  0.0641 -0.2791  0.0391
  769SOL    HW1 3074   2.433   0.598   2.363  0.2553  2.1716  2.1315
  769SOL    HW2 3075   2.365   0.703   2.294 -0.3771 -1.0208  0.2923
  769SOL     MW 3076   2.434   0.679   2.337  0.0311 -0.0536  0.3486
  770SOL     OW 3077   0.032   1.615   2.602 -0.3840  0.5346 -0.3284
  770SOL    HW1 3078  -0.061   1.604   2.610  3.8864  1.9303 -0.1606
  770SOL    HW2 3079   0.067   1.532   2.591  1.1588  2.5238 -3.9054
  770SOL     MW 3080   0.024   1.603   2.602  0.3830  0.9812 -0.7782
  771SOL     OW 3081   3.064   0.636   2.054 -0.4591 -0.4727  0.3230
  771SOL    HW1 3082   2.988   0.614   2.000 -1.9569  0.4136  0.2023
  771SOL    HW2 3083   3.141   0.591   2.008  2.4657 -2.2498 -0.2647
  771SOL     MW 3084   3.064   0.627   2.041 -0.2708 -0.5902  0.2295
  772SOL     OW 3085   0.068   3.091   2.316 -0.1074  0.0884 -0.0939
  772SOL    HW1 3086  -0.018   3.054   2.306 -1.3829 -1.6131 -0.0238
  772SOL    HW2 3087   0.120   3.032   2.265  0.3897  1.2244 -2.6488
  772SOL     MW 3088   0.063   3.078   2.308 -0.2101  0.0138 -0.4217
  773SOL     OW 3089   2.388   2.862   2.752  0.0170 -0.2595 -0.0734
  773SOL    HW1 3090   2.429   2.775   2.728  2.0707 -0.6889 -1.0759
  773SOL    HW2 3091   2.371   2.865   2.844  0.7636  0.2650  0.0666
  773SOL     MW 3092   2.391   2.851   2.761  0.3865 -0.2469 -0.1872
  774SOL     OW 3093   2.350   1.111   1.741  0.4153  0.7030  0.1325
  774SOL    HW1 3094   2.329   1.186   1.683 -1.6238  2.0748  0.2555
  774SOL    HW2 3095   2.311   1.025   1.710 -0.1385  0.1755 -0.9816
  774SOL     MW 3096   2.342   1.110   1.729  0.0732  0.8144  0.0017
  775SOL     OW 3097   2.314   2.882   2.329  0.2895 -0.4386 -0.3345
  775SOL    HW1 3098   2.331   2.968   2.297 -0.3532 -0.7923  0.0285
  775SOL    HW2 3099   2.376   2.816   2.295  1.0418 -1.5694 -0.1813
  775SOL     MW 3100   2.325   2.885   2.320  0.3040 -0.6344 -0.2664
  776SOL     OW 3101   0.043   1.494   0.107 -0.5230  0.4542  0.0657
  776SOL    HW1 3102   0.131   1.464   0.092 -2.5444 -0.5873 -0.7282
  776SOL    HW2 3103  -0.006   1.411   0.129  2.1932 -0.3443 -0.1254
  776SOL     MW 3104   0.048   1.479   0.108 -0.4313  0.2114 -0.0643
  777SOL     OW 3105   2.972   1.075   1.745  0.3707 -0.7544 -0.2471
  777SOL    HW1 3106   2.921   1.122   1.681  1.7980  0.4107 -1.2250
  777SOL    HW2 3107   2.912   1.038   1.810  0.5592  0.8483  1.9936
  777SOL     MW 3108   2.958   1.076   1.745  0.5839 -0.3892 -0.0805
  778SOL     OW 3109   2.887   0.488   2.777 -0.0347 -0.6752 -0.3591
  778SOL    HW1 3110   2.842   0.513   2.863  0.4118 -2.6714 -0.1135
  778SOL    HW2 3111   2.918   0.568   2.734  1.0016 -1.3518  1.1277
  778SOL     MW 3112   2.885   0.502   2.783  0.1610 -1.0278 -0.1305
  779SOL     OW 3113   2.151   0.574   2.329 -0.5512 -0.3547 -0.2408
  779SOL    HW1 3114   2.109   0.628   2.388 -0.0592  0.5094 -3.4751
  779SOL    HW2 3115   2.146   0.489   2.371  0.6554  1.7321 -0.8510
  779SOL     MW 3116   2.145   0.570   2.343 -0.3271  0.0347 -0.7480
  780SOL     OW 3117   0.249   0.138   2.801 -0.6613  0.2386  0.5019
  780SOL    HW1 3118   0.179   0.172   2.860  0.0812 -0.8805  2.3785
  780SOL    HW2 3119   0.203   0.111   2.720 -0.6268 -1.8227 -0.5227
  780SOL     MW 3120   0.234   0.139   2.798 -0.5588 -0.1810  0.6143
  781SOL     OW 3121   3.064   1.299   2.520  0.3455  0.4974  0.1517
  781SOL    HW1 3122   3.029   1.346   2.443 -1.8636 -3.1146  0.0462
  781SOL    HW2 3123   3.093   1.212   2.496 -1.6095  1.7164  1.1594
  781SOL     MW 3124   3.063   1.294   2.507 -0.2039  0.1816  0.2707
  782SOL     OW 3125   0.526   1.634   3.033  0.2994  0.1474  0.3507
  782SOL    HW1 3126   0.481   1.720   3.049 -1.0721  1.8037 -0.6207
  782SOL    HW2 3127   0.517   1.594   3.124  0.3195 -0.7501  4.8746
  782SOL     MW 3128   0.519   1.640   3.047  0.1211  0.2475  0.8194
  783SOL     OW 3129   2.797   0.544   2.469  0.0431  0.2697  0.1907
  783SOL    HW1 3130   2.747   0.520   2.392 -0.3232  0.5555  2.8096
  783SOL    HW2 3131   2.751   0.493   2.537 -0.6570  1.0363 -2.0729
  783SOL     MW 3132   2.785   0.534   2.468 -0.0976  0.4086  0.2376
  784SOL     OW 3133   0.275   0.902   2.893  0.0837  0.0752  0.7800
  784SOL    HW1 3134   0.249   0.962   2.959  1.2694 -4.4348 -1.3012
  784SOL    HW2 3135   0.246   0.960   2.817 -1.3078 -0.0212 -0.4731
  784SOL     MW 3136   0.268   0.917   2.892  0.0565 -0.5325  0.3401
  785SOL     OW 3137   0.382   0.481   2.138 -0.6599 -0.2025  0.3012
  785SOL    HW1 3138   0.381   0.524   2.052  0.3286 -2.6165 -1.0132
  785SOL    HW2 3139   0.326   0.405   2.148 -0.7832  0.3142  0.5197
  785SOL     MW 3140   0.375   0.476   2.128 -0.5458 -0.4528  0.1566
  786SOL     OW 3141   1.986   0.459   2.857  0.1914  0.4369  0.0986
  786SOL    HW1 3142   2.015   0.467   2.949 -2.4101 -1.9247 -0.1582
  786SOL    HW2 3143   2.075   0.460   2.821  3.8562  0.8560  3.0694
  786SOL     MW 3144   2.002   0.460   2.864  0.3316  0.1806  0.4567
  787SOL     OW 3145   2.399   0.153   2.884 -0.3273  0.5023  0.0357
  787SOL    HW1 3146   2.460   0.076   2.852  2.9556 -0.9487 -0.5224
  787SOL    HW2 3147   2.461   0.221   2.922 -1.5630 -0.5014 -0.2749
  787SOL     MW 3148   2.415   0.152   2.885 -0.0572  0.1785 -0.0789
  788SOL     OW 3149   2.950   2.931   2.260  0.3362  0.3185 -0.0003
  788SOL    HW1 3150   2.969   2.870   2.195  2.0929  0.2318 -0.4084
  788SOL    HW2 3151   2.985   2.889   2.340 -1.0427 -1.4085  0.5424
  788SOL     MW 3152   2.957   2.918   2.262  0.3860  0.0792  0.0175
  789SOL     OW 3153   0.063   0.231   2.985 -0.0721 -0.1775 -0.2598
  789SOL    HW1 3154  -0.019   0.194   3.010  0.7612 -0.7282  0.2515
  789SOL    HW2 3155   0.046   0.329   2.979  2.5125  2.0231  2.1704
  789SOL     MW 3156   0.050   0.239   2.988  0.3788  0.0402  0.1283
  790SOL     OW 3157   0.020   1.029   2.462 -0.3247  0.0591 -0.1553
  790SOL    HW1 3158  -0.016   0.990   2.540 -1.5425  3.6650 -1.5478
  790SOL    HW2 3159  -0.050   1.030   2.400 -0.7697 -0.7323  0.3574
  790SOL     MW 3160   0.006   1.024   2.464 -0.5441  0.4304 -0.2714
  791SOL     OW 3161   2.647   0.374   2.656 -0.7243  0.2923 -0.0325
  791SOL    HW1 3162   2.574   0.420   2.686 -1.4728 -1.6510 -0.8167
  791SOL    HW2 3163   2.719   0.395   2.713 -0.0129  0.3035 -2.3056
  791SOL     MW 3164   2.647   0.383   2.667 -0.7292  0.0374 -0.4358
  792SOL     OW 3165   2.377   0.241   2.399 -0.9527  0.1857  0.1250
  792SOL    HW1 3166   2.292   0.290   2.419  1.1132  1.1875 -0.2435
  792SOL    HW2 3167   2.437   0.234   2.479  0.7603  0.6053  0.8816
  792SOL     MW 3168   2.374   0.247   2.412 -0.4541  0.3733  0.1762
  793SOL     OW 3169   1.772   1.000   1.882  0.1809 -0.3117 -0.6332
  793SOL    HW1 3170   1.764   1.044   1.798  3.3558 -0.8443  3.6616
  793SOL    HW2 3171   1.851   0.948   1.866  1.4735  0.4038  3.4146
  793SOL     MW 3172   1.782   0.999   1.869  0.7703 -0.2876  0.4675
  794SOL     OW 3173   1.433   2.279   0.122  0.2601 -0.3326  0.2939
  794SOL    HW1 3174   1.453   2.356   0.069 -2.7543  1.2407  0.0533
  794SOL    HW2 3175   1.454   2.306   0.209  0.9077  1.3272 -1.7815
  794SOL     MW 3176   1.438   2.293   0.126 -0.0522  0.0939 -0.0117
  795SOL     OW 3177   2.286   0.922   2.611  0.5982 -0.2296 -0.0236
  795SOL    HW1 3178   2.270   1.004   2.657  2.3989 -0.8794  1.5933
  795SOL    HW2 3179   2.304   0.954   2.520  2.7484  1.1863 -1.0790
  795SOL     MW 3180   2.286   0.937   2.605  1.1195 -0.1286  0.0505
  796SOL     OW 3181   0.339   0.687   2.756 -0.7273 -0.1813  0.3221
  796SOL    HW1 3182   0.294   0.760   2.803  0.7097 -0.6239  3.1557
  796SOL    HW2 3183   0.270   0.642   2.705  1.7740 -0.4867  1.1110
  796SOL     MW 3184   0.324   0.691   2.756 -0.2077 -0.2800  0.8001
  797SOL     OW 3185   2.594   0.126   2.555  0.2917 -0.1793  0.1874
  797SOL    HW1 3186   2.630   0.204   2.605  0.7691  2.4960  3.4180
  797SOL    HW2 3187   2.662   0.082   2.504  0.5332  1.1502 -2.1744
  797SOL     MW 3188   2.607   0.131   2.555  0.3865  0.3491  0.3020
  798SOL     OW 3189   2.340   0.047   2.205  0.1914  0.4501 -0.0757
  798SOL    HW1 3190   2.366   0.107   2.280 -3.0781  2.1525 -0.6688
  798SOL    HW2 3191   2.421   0.004   2.172  2.3813 -0.8504 -1.1340
  798SOL     MW 3192   2.354   0.049   2.210  0.0490  0.5031 -0.2936
  799SOL     OW 3193   2.485   2.924   0.197  0.0553  0.3405  0.1641
  799SOL    HW1 3194   2.497   2.837   0.156  1.6759  0.7185  1.6982
  799SOL    HW2 3195   2.453   2.985   0.127 -1.4899  0.7882 -0.5570
  799SOL     MW 3196   2.483   2.920   0.183  0.0652  0.4494  0.2714
  800SOL     OW 3197   1.900   3.094   1.764  0.2120  0.1798 -0.1769
  800SOL    HW1 3198   1.828   3.037   1.786 -0.2418  0.7936  1.4987
  800SOL    HW2 3199   1.964   3.078   1.836  1.2321 -0.2337  0.1735
  800SOL     MW 3200   1.899   3.084   1.776  0.2867  0.2062  0.0904
  801SOL     OW 3201   2.804   1.297   2.575 -0.1932 -0.2256 -0.6179
  801SOL    HW1 3202   2.778   1.206   2.545 -0.5732  0.9922 -2.0175
  801SOL    HW2 3203   2.899   1.289   2.576  0.8226  1.4602 -1.8420
  801SOL     MW 3204   2.813   1.284   2.571 -0.1093  0.1575 -0.9641
  802SOL     OW 3205   2.558   1.502   2.780  0.0003  0.6614 -0.5485
  802SOL    HW1 3206   2.571   1.423   2.729 -0.9158  1.8902 -1.9134
  802SOL    HW2 3207   2.644   1.500   2.830  2.5032  0.7849  0.3675
  802SOL     MW 3208   2.571   1.492   2.780  0.2097  0.8398 -0.6077
  803SOL     OW 3209   2.305   1.303   1.964  0.0524  0.1656 -0.1620
  803SOL    HW1 3210   2.261   1.253   2.030  1.5931  0.2181 -1.6951
  803SOL    HW2 3211   2.309   1.242   1.888  1.9607 -2.9054 -0.6949
  803SOL     MW 3212   2.300   1.288   1.963  0.5074 -0.2327 -0.4346
  804SOL     OW 3213   2.344   0.059   0.033  0.3194 -0.5060 -0.0160
  804SOL    HW1 3214   2.270   0.127   0.036  0.0655 -1.1895  0.0967
  804SOL    HW2 3215   2.375   0.077  -0.058 -0.1891 -0.5315 -1.9408
  804SOL     MW 3216   2.338   0.070   0.021  0.2188 -0.5996 -0.2551
  805SOL     OW 3217   2.758   1.040   2.543  0.6168 -0.1787  0.1124
  805SOL    HW1 3218   2.687   0.972   2.543  1.4676 -1.3058 -0.8325
  805SOL    HW2 3219   2.837   0.992   2.581 -0.7560 -0.2362  1.5748
  805SOL     MW 3220   2.759   1.025   2.548  0.5479 -0.3349  0.1807
  806SOL     OW 3221   2.657   0.371   2.281  0.1646 -0.6789 -0.2772
  806SOL    HW1 3222   2.574   0.340   2.310  1.0498 -2.1293 -0.4084
  806SOL    HW2 3223   2.636   0.458   2.239  2.3009  0.1106 -2.5667
  806SOL     MW 3224   2.644   0.378   2.280  0.5633 -0.7661 -0.5966
  807SOL     OW 3225   3.084   1.128   2.027  0.9178  0.1509 -0.4349
  807SOL    HW1 3226   3.129   1.043   2.035  0.0416 -1.0169  1.5473
  807SOL    HW2 3227   3.035   1.125   2.111 -0.7447  2.7258 -0.5644
  807SOL     MW 3228   3.083   1.116   2.039  0.5828  0.3366 -0.1905
  808SOL     OW 3229   2.573   3.069   2.796 -0.2663  0.7614  0.0419
  808SOL    HW1 3230   2.535   2.982   2.775 -0.0439 -2.2989  1.5367
  808SOL    HW2 3231   2.562   3.114   2.712  0.5068 -2.2042  0.2003
  808SOL     MW 3232   2.566   3.063   2.782 -0.1349 -0.0337  0.2601
  809SOL     OW 3233   2.483   1.255   2.414 -0.2883  0.3714 -0.1847
  809SOL    HW1 3234   2.479   1.232   2.512 -1.4420 -1.0869  0.3310
  809SOL    HW2 3235   2.571   1.269   2.385  0.0532  3.3648  1.5464
  809SOL     MW 3236   2.494   1.254   2.423 -0.3955  0.5740  0.1117
  810SOL     OW 3237   2.182   1.200   2.177 -0.9351 -0.3449  0.2327
  810SOL    HW1 3238   2.232   1.122   2.216  0.4495  0.6603 -0.4028
  810SOL    HW2 3239   2.087   1.183   2.181 -1.6133 -3.3093 -0.5330
  810SOL     MW 3240   2.176   1.188   2.183 -0.8419 -0.6034  0.0478
  811SOL     OW 3241   1.493   0.093   2.245  0.6237 -0.4422  0.0669
  811SOL    HW1 3242   1.571   0.043   2.267  0.0161  1.5777 -0.0015
  811SOL    HW2 3243   1.466   0.050   2.157 -2.9758  2.4710 -3.9167
  811SOL     MW 3244   1.500   0.081   2.236  0.0686  0.2087 -0.4677
  812SOL     OW 3245   1.388   2.751   2.074 -0.1104  0.3290  0.2819
  812SOL    HW1 3246   1.473   2.789   2.043  2.6038 -0.8761 -0.3773
  812SOL    HW2 3247   1.404   2.746   2.169 -1.2835 -1.3029  0.5298
  812SOL     MW 3248   1.401   2.756   2.083  0.0930 -0.0453  0.2276
  813SOL     OW 3249   1.826   0.762   2.183  0.3314 -0.6820  0.0033
  813SOL    HW1 3250   1.799   0.668   2.183  0.6014 -1.7839 -0.9892
  813SOL    HW2 3251   1.830   0.777   2.274  2.2223  1.5748 -2.8821
  813SOL     MW 3252   1.823   0.751   2.195  0.6165 -0.5296 -0.5084
  814SOL     OW 3253   2.785   1.205   1.612  0.7359 -0.2047  0.3353
  814SOL    HW1 3254   2.710   1.203   1.680 -0.3439 -0.5836 -0.9902
  814SOL    HW2 3255   2.752   1.177   1.524  0.0568  3.0106 -0.9069
  814SOL     MW 3256   2.771   1.201   1.610  0.5038  0.1696 -0.0035
  815SOL     OW 3257   2.461   1.623   2.369  0.1932  0.0819 -0.0969
  815SOL    HW1 3258   2.393   1.559   2.375  1.9208  2.7569  0.1577
  815SOL    HW2 3259   2.538   1.564   2.388  0.3821  4.3594  3.8661
  815SOL     MW 3260   2.463   1.607   2.372  0.4461  0.9992  0.4596
  816SOL     OW 3261   0.645   0.681   2.720  0.8252  0.8860 -0.2630
  816SOL    HW1 3262   0.681   0.605   2.764  0.6909  3.3213 -2.2702
  816SOL    HW2 3263   0.562   0.652   2.668 -0.5680  0.1183 -0.3051
  816SOL     MW 3264   0.638   0.667   2.719  0.6236  1.1061 -0.5334
  817SOL     OW 3265   3.032   1.158   1.389 -0.0684  0.3389  0.0098
  817SOL    HW1 3266   3.079   1.182   1.470  0.2936 -1.7963 -0.7046
  817SOL    HW2 3267   3.017   1.240   1.343 -0.6918 -2.1651 -3.9973
  817SOL     MW 3268   3.036   1.172   1.394 -0.1029 -0.2732 -0.6132
  818SOL     OW 3269   1.933   0.987   2.685 -0.4062 -0.1630 -0.2116
  818SOL    HW1 3270   1.966   1.027   2.604 -0.3783 -1.1433  1.4851
  818SOL    HW2 3271   1.992   0.912   2.699  0.4575  1.1816 -0.8755
  818SOL     MW 3272   1.945   0.982   2.676 -0.2885 -0.1149 -0.0754
  819SOL     OW 3273   1.822   0.262   2.381  0.0729  0.7937 -0.3733
  819SOL    HW1 3274   1.817   0.356   2.393  0.9304 -1.3689  1.0495
  819SOL    HW2 3275   1.889   0.224   2.444 -1.4020 -2.3118  1.7160
  819SOL     MW 3276   1.830   0.269   2.391 -0.0085  0.0986  0.0901
  820SOL     OW 3277   2.460   1.717   2.621 -0.5337  0.2587 -0.3384
  820SOL    HW1 3278   2.468   1.648   2.688 -0.9366  1.1003  2.1307
  820SOL    HW2 3279   2.455   1.660   2.538  0.5607 -2.2240 -2.3341
  820SOL     MW 3280   2.460   1.700   2.619 -0.4425  0.0422 -0.2760
  821SOL     OW 3281   2.583   1.336   2.041 -0.1444 -0.2101  0.2781
  821SOL    HW1 3282   2.603   1.398   1.972  0.2643 -0.2121 -1.4539
  821SOL    HW2 3283   2.490   1.326   2.034  0.7978  2.6021  1.0591
  821SOL     MW 3284   2.573   1.343   2.031  0.0338  0.1607  0.1526
  822SOL     OW 3285   2.893   2.684   1.386  0.7548 -0.1812 -0.2906
  822SOL    HW1 3286   2.802   2.719   1.379 -0.4785 -1.6557 -0.8883
  822SOL    HW2 3287   2.953   2.756   1.394  0.6886  2.5907  1.2595
  822SOL     MW 3288   2.889   2.699   1.386  0.5833 -0.0100 -0.1650
  823SOL     OW 3289   2.298   0.452   1.774  0.3854 -0.4334  0.0259
  823SOL    HW1 3290   2.380   0.414   1.734 -0.5014 -1.7207 -0.0220
  823SOL    HW2 3291   2.233   0.391   1.740  2.7452 -2.2202 -2.7785
  823SOL     MW 3292   2.300   0.439   1.764  0.5797 -0.8390 -0.3504
  824SOL     OW 3293   2.120   1.322   2.555  0.4923 -0.2999  0.2044
  824SOL    HW1 3294   2.171   1.337   2.469 -0.5342  0.6346  0.1637
  824SOL    HW2 3295   2.093   1.413   2.579 -0.4414  2.3781 -0.8145
  824SOL     MW 3296   2.123   1.336   2.547  0.2337  0.1768  0.0646
  825SOL     OW 3297   2.194   2.398   0.399 -0.4886 -0.0314  0.0369
  825SOL    HW1 3298   2.252   2.345   0.346 -3.0374 -1.1417  4.1756
  825SOL    HW2 3299   2.217   2.393   0.491 -0.3146 -0.6259 -0.5938
  825SOL     MW 3300   2.204   2.390   0.404 -0.8019 -0.2563  0.4998
  826SOL     OW 3301   1.744   2.336   0.399  0.1989  0.1649 -0.2527
  826SOL    HW1 3302   1.747   2.292   0.489  0.2470  2.3216  2.8431
  826SOL    HW2 3303   1.748   2.427   0.424 -0.5241  2.0444 -0.5181
  826SOL     MW 3304   1.745   2.343   0.414  0.1099  0.6974  0.1208
  827SOL     OW 3305   1.928   2.288   0.893  0.0687  0.2926 -0.4765
  827SOL    HW1 3306   1.876   2.281   0.810  0.0278 -1.8953  0.3945
  827SOL    HW2 3307   1.893   2.206   0.939 -2.7241 -1.5113 -2.7089
  827SOL     MW 3308   1.916   2.276   0.888 -0.3052 -0.2341 -0.6561
  828SOL     OW 3309   0.051   2.608   0.563 -0.5017 -0.5385 -0.1631
  828SOL    HW1 3310   0.127   2.624   0.620 -2.4016  0.8181  0.8124
  828SOL    HW2 3311   0.071   2.643   0.471  1.5978  0.9585  0.3516
  828SOL     MW 3312   0.064   2.615   0.558 -0.4753 -0.1620  0.0335
  829SOL     OW 3313   3.012   2.893   1.201  0.0463  0.0170  0.2536
  829SOL    HW1 3314   2.938   2.908   1.147  2.6541 -0.5818  3.1164
  829SOL    HW2 3315   3.044   2.807   1.178 -1.4618 -1.5693  0.8979
  829SOL     MW 3316   3.006   2.883   1.191  0.1914 -0.2713  0.7163
  830SOL     OW 3317   2.513   2.781   1.999 -1.0480 -0.0007 -0.3793
  830SOL    HW1 3318   2.415   2.805   1.973  0.9151 -0.2456 -1.3596
  830SOL    HW2 3319   2.560   2.783   1.912 -1.1267 -1.1442  0.2948
  830SOL     MW 3320   2.506   2.784   1.984 -0.7994 -0.1839 -0.4197
  831SOL     OW 3321   2.473   2.432   1.175 -0.3831  0.2821  0.0189
  831SOL    HW1 3322   2.457   2.356   1.230 -0.4076 -2.6266  1.0330
  831SOL    HW2 3323   2.568   2.416   1.145  0.9604  1.1293  1.4380
  831SOL     MW 3324   2.483   2.420   1.178 -0.2091  0.0101  0.3400
  832SOL     OW 3325   2.414   2.130   1.888 -0.2898 -0.3859  0.6646
  832SOL    HW1 3326   2.451   2.212   1.912  2.2283 -1.4457  0.0617
  832SOL    HW2 3327   2.482   2.078   1.854 -0.0453  0.4263  1.7868
  832SOL     MW 3328   2.428   2.134   1.887  0.0747 -0.4185  0.7331
  833SOL     OW 3329   1.649   2.586   0.869 -0.6902 -0.8007 -0.6843
  833SOL    HW1 3330   1.630   2.514   0.937  1.3399  1.5211 -1.2151
  833SOL    HW2 3331   1.571   2.644   0.858  0.2603 -0.6668 -4.9610
  833SOL     MW 3332   1.637   2.584   0.876 -0.2970 -0.4767 -1.3186
  834SOL     OW 3333   2.258   2.349   0.671 -0.0380  0.0377 -1.1012
  834SOL    HW1 3334   2.234   2.263   0.696  1.5896  0.8097 -1.9122
  834SOL    HW2 3335   2.356   2.356   0.677 -0.7755  3.8987 -0.7568
  834SOL     MW 3336   2.268   2.338   0.675  0.0795  0.6490 -1.1627
  835SOL     OW 3337   1.732   2.544   0.612  0.2492 -0.0387 -0.2323
  835SOL    HW1 3338   1.689   2.552   0.699  2.4527  0.6008 -0.0951
  835SOL    HW2 3339   1.811   2.496   0.622 -1.0525 -0.6992  4.2552
  835SOL     MW 3340   1.737   2.539   0.625  0.3682 -0.0415  0.3779
  836SOL     OW 3341   2.063   2.104   1.675  0.6605 -0.3168  0.3326
  836SOL    HW1 3342   2.144   2.053   1.680  1.5807 -1.2953  0.7683
  836SOL    HW2 3343   2.086   2.185   1.721 -0.6543  0.0128  0.4727
  836SOL     MW 3344   2.076   2.108   1.682  0.6085 -0.4024  0.4086
  837SOL     OW 3345   2.105   0.186   0.634  0.4708 -0.5327  0.4012
  837SOL    HW1 3346   2.018   0.190   0.602 -1.0189  0.4425 -0.7582
  837SOL    HW2 3347   2.144   0.108   0.583 -1.5399 -3.4904 -1.7060
  837SOL     MW 3348   2.099   0.176   0.623  0.0089 -0.7943 -0.0298
  838SOL     OW 3349   2.875   2.063   0.902  0.4917 -0.2676 -0.2560
  838SOL    HW1 3350   2.814   1.986   0.904  2.0382 -0.9207  0.2902
  838SOL    HW2 3351   2.925   2.054   0.987  1.5348  1.7616  1.3421
  838SOL     MW 3352   2.873   2.051   0.914  0.8334 -0.0861  0.0269
  839SOL     OW 3353   1.575   2.379   1.047 -0.3977  0.5916  0.1209
  839SOL    HW1 3354   1.539   2.445   1.109  3.7585 -0.3186 -1.7650
  839SOL    HW2 3355   1.591   2.302   1.115  1.3844 -2.3461  3.8218
  839SOL     MW 3356   1.572   2.377   1.064  0.3858  0.0839  0.3603
  840SOL     OW 3357   2.417   2.100   2.371  0.3057  0.1041 -0.8404
  840SOL    HW1 3358   2.364   2.173   2.331 -1.3536  0.8797 -3.2105
  840SOL    HW2 3359   2.481   2.137   2.430  1.3023 -1.1040 -2.0305
  840SOL     MW 3360   2.419   2.115   2.374  0.2183  0.0471 -1.3101
  841SOL     OW 3361   2.316   2.315   0.096  0.3740 -0.5087  0.3066
  841SOL    HW1 3362   2.335   2.383   0.034 -0.9721 -1.8078  0.5701
  841SOL    HW2 3363   2.226   2.287   0.068  0.1179 -3.7402  2.4330
  841SOL     MW 3364   2.307   2.320   0.084  0.1626 -1.1065  0.6219
  842SOL     OW 3365   2.658   1.917   1.412 -0.4270 -0.1360  0.1019
  842SOL    HW1 3366   2.588   1.855   1.403 -0.6137 -0.6928  2.7826
  842SOL    HW2 3367   2.656   1.981   1.339 -0.9096 -2.2236 -2.4069
  842SOL     MW 3368   2.649   1.918   1.401 -0.5153 -0.4849  0.1246
  843SOL     OW 3369   2.644   2.784   1.736 -0.5097  0.3067  0.0842
  843SOL    HW1 3370   2.731   2.751   1.765 -1.0589 -1.3972 -1.0416
  843SOL    HW2 3371   2.609   2.698   1.696  2.8509 -3.2268 -0.8137
  843SOL     MW 3372   2.651   2.768   1.734 -0.1388 -0.3843 -0.1828
  844SOL     OW 3373   2.709   2.327   1.114  0.1390 -0.2459  0.0364
  844SOL    HW1 3374   2.711   2.380   1.032 -2.2857 -1.7879  0.4670
  844SOL    HW2 3375   2.780   2.361   1.171 -0.9425  1.3094  0.2735
  844SOL     MW 3376   2.719   2.338   1.111 -0.3236 -0.2442  0.1245
  845SOL     OW 3377   2.838   2.583   0.300  0.3983  0.5433 -0.0779
  845SOL    HW1 3378   2.825   2.499   0.335 -0.6633  1.6726 -1.0470
  845SOL    HW2 3379   2.829   2.650   0.369 -1.4400 -0.1550  0.2867
  845SOL     MW 3380   2.835   2.581   0.313  0.0157  0.6002 -0.1577
  846SOL     OW 3381   1.463   2.781   0.788  0.2313 -0.5711  0.4493
  846SOL    HW1 3382   1.512   2.866   0.790  0.2570 -0.5472  0.6066
  846SOL    HW2 3383   1.367   2.799   0.767 -0.0095  0.3795 -0.3370
  846SOL     MW 3384   1.457   2.795   0.786  0.2030 -0.4425  0.3663
  847SOL     OW 3385   2.498   1.858   0.201  0.1984 -0.6663  0.7363
  847SOL    HW1 3386   2.451   1.783   0.240  1.4066  1.5732  1.1961
  847SOL    HW2 3387   2.482   1.855   0.098 -0.5137 -1.1188 -1.1774
  847SOL     MW 3388   2.489   1.847   0.192  0.2638 -0.4305  0.5445
  848SOL     OW 3389   2.669   2.084   1.202  0.6526 -0.2008  0.0374
  848SOL    HW1 3390   2.694   2.168   1.161  0.0970 -1.5008  4.0475
  848SOL    HW2 3391   2.683   2.009   1.138 -0.1073 -2.4358  1.4625
  848SOL     MW 3392   2.674   2.085   1.188  0.4790 -0.6672  0.7545
  849SOL     OW 3393   1.977   2.860   0.784 -0.0193  0.0390 -0.0826
  849SOL    HW1 3394   1.945   2.831   0.870 -1.1336  0.0154  0.2229
  849SOL    HW2 3395   2.014   2.782   0.744 -2.5450 -1.7238  1.2003
  849SOL     MW 3396   1.978   2.846   0.790 -0.4996 -0.1967  0.1269
  850SOL     OW 3397   2.329   1.870   1.618 -0.6035  0.7585 -0.0789
  850SOL    HW1 3398   2.253   1.848   1.564 -0.5946  0.7726 -1.4078
  850SOL    HW2 3399   2.344   1.969   1.598  2.9191  2.3165 -1.7407
  850SOL     MW 3400   2.321   1.880   1.608 -0.1376  0.9659 -0.4735
  851SOL     OW 3401   2.433   2.253   0.362  0.9896 -0.9209  0.2660
  851SOL    HW1 3402   2.437   2.270   0.270  1.3558 -0.1173  0.8089
  851SOL    HW2 3403   2.459   2.344   0.400 -1.9191  1.2947  2.8511
  851SOL     MW 3404   2.437   2.268   0.355  0.6541 -0.5226  0.6787
  852SOL     OW 3405   2.315   2.006   0.361 -0.1901  0.4757  0.3418
  852SOL    HW1 3406   2.333   2.098   0.374  1.4545 -0.6230  2.8541
  852SOL    HW2 3407   2.384   1.976   0.295 -0.3543  0.5708  2.7029
  852SOL     MW 3408   2.327   2.014   0.354  0.0053  0.3433  0.9848
  853SOL     OW 3409   2.515   2.379   1.924  0.1901  0.0207  0.0137
  853SOL    HW1 3410   2.503   2.436   1.848 -0.0502  0.5576 -1.6964
  853SOL    HW2 3411   2.610   2.370   1.943 -0.5306 -0.6682  1.6600
  853SOL     MW 3412   2.526   2.386   1.917  0.0633  0.0007  0.0053
  854SOL     OW 3413   2.864   2.271   0.724  0.2101  0.4956  0.2859
  854SOL    HW1 3414   2.777   2.242   0.685  0.4226 -1.0893 -0.9522
  854SOL    HW2 3415   2.888   2.198   0.785  2.0378  0.8010  1.4650
  854SOL     MW 3416   2.856   2.258   0.727  0.4793  0.3268  0.2781
  855SOL     OW 3417   2.766   2.362   0.443  0.4008 -0.4722 -0.1553
  855SOL    HW1 3418   2.681   2.343   0.485 -2.9949  1.5815 -1.8735
  855SOL    HW2 3419   2.796   2.278   0.402 -0.8546 -0.7597  0.9029
  855SOL     MW 3420   2.759   2.348   0.443 -0.2129 -0.2391 -0.2424
  856SOL     OW 3421   2.060   1.880   0.257 -0.1088 -0.5346 -0.4158
  856SOL    HW1 3422   1.970   1.905   0.285 -1.6922 -1.3362 -1.0925
  856SOL    HW2 3423   2.113   1.939   0.310  1.0481 -2.3955  0.1120
  856SOL     MW 3424   2.055   1.891   0.268 -0.1651 -0.8859 -0.4354
  857SOL     OW 3425   2.486   1.947   0.559 -0.3000  0.3460  0.1998
  857SOL    HW1 3426   2.409   1.959   0.500 -1.8148 -1.9216  1.0039
  857SOL    HW2 3427   2.433   1.908   0.632 -3.5891  1.1217  1.4742
  857SOL     MW 3428   2.469   1.944   0.561 -0.9338  0.1492  0.4741
  858SOL     OW 3429   2.888   2.686   1.780  0.4782  0.1791 -0.1097
  858SOL    HW1 3430   2.959   2.713   1.839  2.1205 -1.5560  0.6645
  858SOL    HW2 3431   2.918   2.609   1.728  0.6937 -0.0062  0.4754
  858SOL     MW 3432   2.901   2.679   1.781  0.7233 -0.0743  0.0696
  859SOL     OW 3433   1.863   2.693   1.013 -0.5036 -0.2567  0.1481
  859SOL    HW1 3434   1.793   2.667   0.954 -0.0376 -0.2147 -2.9451
  859SOL    HW2 3435   1.933   2.634   1.022 -1.5431 -1.0917 -1.9214
  859SOL     MW 3436   1.863   2.682   1.007 -0.5792 -0.3613 -0.5331
  860SOL     OW 3437   2.608   2.614   0.178  0.2440 -0.7975 -0.0752
  860SOL    HW1 3438   2.695   2.611   0.229 -0.6912 -0.9282  0.4858
  860SOL    HW2 3439   2.623   2.665   0.102 -1.7113 -1.4021  1.0450
  860SOL     MW 3440   2.622   2.620   0.174 -0.1374 -0.8945  0.1466
  861SOL     OW 3441   1.638   2.143   1.199 -0.1008 -0.6434 -0.1001
  861SOL    HW1 3442   1.674   2.179   1.278 -2.3263  3.2381  0.0613
  861SOL    HW2 3443   1.558   2.102   1.232 -2.3996  1.0806 -0.5394
  861SOL     MW 3444   1.632   2.142   1.213 -0.6978  0.0962 -0.1368
  862SOL     OW 3445   2.447   1.746   1.424 -0.3343 -0.3801  0.1378
  862SOL    HW1 3446   2.401   1.769   1.506  1.4514 -4.0337 -0.0915
  862SOL    HW2 3447   2.381   1.732   1.352 -1.1591  4.7656  1.2908
  862SOL     MW 3448   2.432   1.747   1.425 -0.2075 -0.1833  0.2597
  863SOL     OW 3449   3.008   1.692   0.984 -0.1165  0.0028  0.4772
  863SOL    HW1 3450   3.073   1.756   1.014 -1.3434  1.5545  2.0360
  863SOL    HW2 3451   2.922   1.710   1.025 -1.6690 -0.6788 -1.3309
  863SOL     MW 3452   3.005   1.703   0.993 -0.4832  0.1176  0.4443
  864SOL     OW 3453   0.019   1.806   0.738 -0.1643 -0.3629 -0.5653
  864SOL    HW1 3454  -0.026   1.746   0.794  0.8847 -0.6647 -0.3058
  864SOL    HW2 3455  -0.011   1.778   0.653 -0.7832 -1.2198  1.2150
  864SOL     MW 3456   0.009   1.795   0.734 -0.1075 -0.5158 -0.2961
  865SOL     OW 3457   2.580   2.170   0.098 -0.7606 -0.1422 -0.0596
  865SOL    HW1 3458   2.555   2.088   0.135  3.9537 -0.5941  1.1705
  865SOL    HW2 3459   2.508   2.174   0.036 -2.3816 -0.6205  1.1767
  865SOL     MW 3460   2.567   2.159   0.095 -0.3525 -0.2649  0.2658
  866SOL     OW 3461   2.662   2.390   1.544  0.3007 -0.2858  0.0854
  866SOL    HW1 3462   2.653   2.299   1.573 -1.4546 -0.2684  1.1050
  866SOL    HW2 3463   2.717   2.398   1.471  0.5877 -0.9354  0.6151
  866SOL     MW 3464   2.668   2.379   1.538  0.1070 -0.3692  0.2899
  867SOL     OW 3465   0.105   2.664   1.743 -0.2594  0.1268 -0.1780
  867SOL    HW1 3466   0.162   2.728   1.783  1.8706 -1.8002 -1.4839
  867SOL    HW2 3467   0.080   2.704   1.660  1.2344  3.4716 -2.2524
  867SOL     MW 3468   0.110   2.678   1.738  0.2187  0.3138 -0.6240
  868SOL     OW 3469   2.762   2.702   0.517  0.0626 -0.3582  0.4168
  868SOL    HW1 3470   2.754   2.621   0.554  1.5142  3.7111  0.8738
  868SOL    HW2 3471   2.678   2.745   0.516 -0.8922 -1.1068  2.2610
  868SOL     MW 3472   2.750   2.697   0.522  0.1281  0.0800  0.7205
  869SOL     OW 3473   2.051   2.502   1.051 -0.5326 -0.4883 -0.1461
  869SOL    HW1 3474   2.115   2.560   1.008 -0.7059  2.4372  1.8575
  869SOL    HW2 3475   2.016   2.440   0.985 -1.7294 -3.4675 -0.4548
  869SOL     MW 3476   2.055   2.501   1.036 -0.7134 -0.4954  0.0776
  870SOL     OW 3477   2.223   3.099   0.478  0.4831 -0.3581  0.1724
  870SOL    HW1 3478   2.284   3.122   0.404 -0.6320 -3.5529 -1.1310
  870SOL    HW2 3479   2.253   3.023   0.520  1.8249  1.8844 -0.2616
  870SOL     MW 3480   2.235   3.092   0.474  0.5130 -0.4838 -0.0568
  871SOL     OW 3481   2.469   2.115   0.880 -0.0168  0.2204  0.1187
  871SOL    HW1 3482   2.395   2.091   0.829 -0.1964  1.4291 -0.5865
  871SOL    HW2 3483   2.451   2.208   0.900  2.9057 -0.5231  4.1621
  871SOL     MW 3484   2.457   2.124   0.876  0.3451  0.2818  0.5592
  872SOL     OW 3485   2.134   2.557   1.540 -0.0789 -0.3404  0.1198
  872SOL    HW1 3486   2.063   2.602   1.588 -0.3704 -1.2193  1.6923
  872SOL    HW2 3487   2.085   2.506   1.472 -0.2188 -3.3910 -1.1986
  872SOL     MW 3488   2.118   2.556   1.537 -0.1358 -0.8589  0.1533
  873SOL     OW 3489   2.856   2.095   1.836  0.1052  0.0899  0.1883
  873SOL    HW1 3490   2.832   2.182   1.872  1.4609  2.1445  0.6108
  873SOL    HW2 3491   2.947   2.110   1.799 -1.0930  2.0816 -0.6299
  873SOL     MW 3492   2.865   2.109   1.836  0.1260  0.6237  0.1361
  874SOL     OW 3493   2.281   1.401   2.328 -0.5326 -0.6573  0.1873
  874SOL    HW1 3494   2.237   1.339   2.263 -1.5408 -2.0261 -1.3992
  874SOL    HW2 3495   2.350   1.344   2.367  2.1028 -1.1781  4.2675
  874SOL     MW 3496   2.284   1.385   2.324 -0.3179 -0.9066  0.5163
  875SOL     OW 3497   2.367   2.362   0.942  0.3626  0.2719 -0.1677
  875SOL    HW1 3498   2.403   2.431   0.879  1.5036  1.6341 -0.2729
  875SOL    HW2 3499   2.415   2.386   1.029  0.5644 -2.7200  2.3568
  875SOL     MW 3500   2.378   2.375   0.945  0.5398  0.0569  0.1515
  876SOL     OW 3501   0.002   2.256   1.335  0.0140 -0.1650 -0.9677
  876SOL    HW1 3502   0.052   2.296   1.260 -0.0078 -0.3167 -1.0286
  876SOL    HW2 3503   0.048   2.292   1.415 -0.4882 -1.7089 -0.7850
  876SOL     MW 3504   0.015   2.266   1.335 -0.0551 -0.3887 -0.9517
  877SOL     OW 3505   0.058   2.760   0.333 -0.1251  0.2325 -0.0563
  877SOL    HW1 3506   0.098   2.845   0.347  0.6814  0.9448 -1.6079
  877SOL    HW2 3507   0.045   2.744   0.244 -0.6594 -1.0760 -0.0720
  877SOL     MW 3508   0.062   2.769   0.323 -0.0892  0.1539 -0.2631
  878SOL     OW 3509   2.297   1.710   1.211 -0.6583 -0.4709 -0.5094
  878SOL    HW1 3510   2.210   1.665   1.250 -0.7277  0.4604 -0.6300
  878SOL    HW2 3511   2.361   1.641   1.187 -1.7068  1.8114  0.3591
  878SOL     MW 3512   2.294   1.695   1.213 -0.8058 -0.0469 -0.4107
  879SOL     OW 3513   2.746   2.477   0.886 -0.0135  0.2047 -1.0702
  879SOL    HW1 3514   2.815   2.537   0.916 -2.2075 -1.2136 -1.2202
  879SOL    HW2 3515   2.803   2.412   0.843 -0.0617  1.4374  2.9300
  879SOL     MW 3516   2.763   2.476   0.884 -0.3093  0.1802 -0.5622
  880SOL     OW 3517   2.584   2.229   0.638 -0.1373 -0.2077  0.1916
  880SOL    HW1 3518   2.545   2.191   0.719 -0.1269 -1.2895  0.2674
  880SOL    HW2 3519   2.594   2.159   0.571  0.0432  2.3193  2.5909
  880SOL     MW 3520   2.580   2.215   0.640 -0.1121 -0.0170  0.5182
  881SOL     OW 3521   2.966   2.761   0.688  0.5661 -0.1730 -0.5308
  881SOL    HW1 3522   2.885   2.751   0.639  0.5341  3.2960  0.9664
  881SOL    HW2 3523   3.041   2.719   0.644  1.1549  1.6378  3.1482
  881SOL     MW 3524   2.965   2.754   0.676  0.6395  0.5236  0.1522
  882SOL     OW 3525   2.258   2.884   1.942 -0.3010  0.2179  0.0778
  882SOL    HW1 3526   2.235   2.913   1.850 -0.5033 -1.4656  1.0466
  882SOL    HW2 3527   2.229   2.789   1.952  0.8748  0.8064  0.2272
  882SOL     MW 3528   2.251   2.875   1.931 -0.1726  0.0734  0.2253
  883SOL     OW 3529   2.432   2.194   1.319 -0.1707 -0.8083 -0.1866
  883SOL    HW1 3530   2.513   2.153   1.290 -2.0230  1.2716  1.0465
  883SOL    HW2 3531   2.360   2.172   1.252  1.5707 -2.3833  0.2222
  883SOL     MW 3532   2.433   2.185   1.306 -0.1853 -0.7417  0.0300
  884SOL     OW 3533   1.937   1.832   1.064 -0.0060  0.2527 -0.3848
  884SOL    HW1 3534   1.887   1.913   1.038 -0.5080 -0.3993 -2.3178
  884SOL    HW2 3535   2.026   1.861   1.056 -1.7937  2.4031 -0.5508
  884SOL     MW 3536   1.942   1.847   1.060 -0.3081  0.4504 -0.6617
  885SOL     OW 3537   2.891   2.404   1.699  0.1355  0.9314  0.3036
  885SOL    HW1 3538   2.959   2.339   1.669 -0.7621  2.2362 -1.8196
  885SOL    HW2 3539   2.820   2.408   1.636 -0.4137 -2.2573 -1.3584
  885SOL     MW 3540   2.890   2.396   1.687 -0.0554  0.6829 -0.1958
  886SOL     OW 3541   2.873   2.430   1.309  0.2701  0.5377 -1.0893
  886SOL    HW1 3542   2.956   2.381   1.310 -2.1528 -0.9663  0.9758
  886SOL    HW2 3543   2.909   2.527   1.324 -1.0685  2.1073 -0.3351
  886SOL     MW 3544   2.889   2.436   1.311 -0.2262  0.5463 -0.7173
  887SOL     OW 3545   2.360   2.700   1.522 -0.2721  0.3403  0.2738
  887SOL    HW1 3546   2.380   2.722   1.432 -2.2344 -0.6952  0.1690
  887SOL    HW2 3547   2.276   2.647   1.523  0.9423 -0.0448  3.0845
  887SOL     MW 3548   2.352   2.696   1.511 -0.3708  0.1529  0.6308
  888SOL     OW 3549   2.059   2.163   1.385  0.1449 -0.1703  0.3177
  888SOL    HW1 3550   2.110   2.174   1.305  0.8465 -1.9040  0.8008
  888SOL    HW2 3551   2.115   2.189   1.457 -2.5172 -1.1785 -0.3305
  888SOL     MW 3552   2.073   2.168   1.384 -0.1137 -0.5321  0.2959
  889SOL     OW 3553   2.271   1.922   2.022  0.2316  0.1519 -0.0843
  889SOL    HW1 3554   2.335   1.896   2.092 -0.8847  1.0515  0.6976
  889SOL    HW2 3555   2.304   2.006   1.982 -0.3753  1.5052  0.5647
  889SOL     MW 3556   2.284   1.930   2.026  0.0042  0.4491  0.1045
  890SOL     OW 3557   0.052   2.341   0.154  0.4757 -0.0838 -0.4318
  890SOL    HW1 3558   0.026   2.435   0.154  1.4667  0.7292  2.4152
  890SOL    HW2 3559   0.024   2.304   0.240 -1.6711  0.1781  3.3419
  890SOL     MW 3560   0.045   2.348   0.166  0.3232  0.0580  0.4417
  891SOL     OW 3561   3.012   2.034   1.152  0.4472 -0.4846  0.1778
  891SOL    HW1 3562   3.061   1.954   1.154 -1.4065  0.8264 -4.8989
  891SOL    HW2 3563   3.052   2.097   1.213  0.2409  0.4184  0.9238
  891SOL     MW 3564   3.023   2.032   1.160  0.1754 -0.1925 -0.3936
  892SOL     OW 3565   2.487   2.396   2.816 -0.3254 -0.1689 -0.3786
  892SOL    HW1 3566   2.477   2.317   2.870 -2.6035 -1.4685 -0.3333
  892SOL    HW2 3567   2.585   2.422   2.826  2.3914 -0.2953 -3.4344
  892SOL     MW 3568   2.498   2.389   2.824 -0.2675 -0.3571 -0.7758
  893SOL     OW 3569   1.662   2.363   1.390 -0.1754 -0.5590 -0.1266
  893SOL    HW1 3570   1.584   2.398   1.438 -2.3936  0.7626 -0.4778
  893SOL    HW2 3571   1.726   2.430   1.407 -0.7852  0.4988  2.1567
  893SOL     MW 3572   1.660   2.376   1.399 -0.5486 -0.2451  0.1283
  894SOL     OW 3573   2.751   1.869   0.455  0.1644 -0.0693 -0.1241
  894SOL    HW1 3574   2.656   1.898   0.465 -3.5115  0.1582 -1.4111
  894SOL    HW2 3575   2.757   1.849   0.363 -0.2953 -2.0892  1.3236
  894SOL     MW 3576   2.739   1.870   0.445 -0.3812 -0.3058 -0.1029
  895SOL     OW 3577   2.226   2.169   1.104  0.6145 -0.4915  0.2727
  895SOL    HW1 3578   2.277   2.226   1.049  1.9723 -2.0510  0.6118
  895SOL    HW2 3579   2.227   2.086   1.060  0.0506 -1.7431 -1.4727
  895SOL     MW 3580   2.233   2.166   1.091  0.7193 -0.8624  0.0871
  896SOL     OW 3581   2.203   2.759   1.076  0.3755  0.4137 -0.0923
  896SOL    HW1 3582   2.274   2.728   1.138 -1.9686 -2.0417  0.4080
  896SOL    HW2 3583   2.142   2.811   1.125  0.8234  0.6088 -0.9947
  896SOL     MW 3584   2.204   2.762   1.091  0.1253  0.1155 -0.1454
  897SOL     OW 3585   3.057   3.024   0.003  0.1159 -0.0281 -0.0557
  897SOL    HW1 3586   3.121   2.952   0.013  3.7589 -1.4097  0.9297
  897SOL    HW2 3587   2.971   2.987  -0.023  1.7595 -0.0673  0.7049
  897SOL     MW 3588   3.054   3.010   0.001  0.8134 -0.2156  0.1746
  898SOL     OW 3589   2.163   0.133   1.455  0.8725 -0.3114  0.1192
  898SOL    HW1 3590   2.089   0.071   1.465 -0.2701  1.2879 -1.3770
  898SOL    HW2 3591   2.155   0.171   1.371  1.6506  1.8579 -0.7651
  898SOL     MW 3592   2.152   0.130   1.446  0.8244  0.1859 -0.1949
  899SOL     OW 3593   2.889   3.032   0.597  0.4365 -0.1874  0.1054
  899SOL    HW1 3594   2.910   2.971   0.669  0.1510 -0.8497 -2.0309
  899SOL    HW2 3595   2.797   3.052   0.607 -1.2525  0.7922 -2.1234
  899SOL     MW 3596   2.880   3.027   0.608  0.1760 -0.1455 -0.4705
  900SOL     OW 3597   0.096   2.343   1.091  0.1651 -0.0073  0.5504
  900SOL    HW1 3598   0.097   2.433   1.063  2.6178 -0.2628  1.4557
  900SOL    HW2 3599   0.099   2.293   1.008 -1.5802 -0.1690  0.2387
  900SOL     MW 3600   0.097   2.348   1.076  0.2584 -0.0623  0.6287
  901SOL     OW 3601   1.745   2.862   1.788 -0.2834  0.4952 -0.2542
  901SOL    HW1 3602   1.820   2.808   1.778 -3.0416 -0.8523  0.9071
  901SOL    HW2 3603   1.675   2.844   1.726  0.1842 -1.8182 -0.7029
  901SOL     MW 3604   1.746   2.852   1.779 -0.5856  0.0122 -0.1601
  902SOL     OW 3605   2.638   2.116   1.612  0.0284 -0.0361  0.9669
  902SOL    HW1 3606   2.637   2.035   1.555  0.2644 -0.4079 -1.6381
  902SOL    HW2 3607   2.708   2.098   1.672  0.1474 -0.5263  0.4034
  902SOL     MW 3608   2.647   2.103   1.612  0.0752 -0.1499  0.5488
  903SOL     OW 3609   1.503   2.657   0.544  0.0260 -0.2415 -1.0573
  903SOL    HW1 3610   1.591   2.610   0.538  1.3292  0.0633  1.2865
  903SOL    HW2 3611   1.508   2.712   0.631  1.7561 -1.3196  3.6908
  903SOL     MW 3612   1.515   2.658   0.554  0.4262 -0.3435 -0.1216
  904SOL     OW 3613   2.505   2.532   1.698  0.5624 -0.1756  0.3107
  904SOL    HW1 3614   2.439   2.589   1.647 -0.4781 -0.6602 -2.7301
  904SOL    HW2 3615   2.550   2.477   1.634  0.5073  0.5522  0.5369
  904SOL     MW 3616   2.503   2.532   1.683  0.4178 -0.1436 -0.0606
  905SOL     OW 3617   2.296   2.456   2.091  0.4507  0.2446  0.0067
  905SOL    HW1 3618   2.378   2.419   2.057  0.8989  0.4219  0.1010
  905SOL    HW2 3619   2.277   2.383   2.166  0.8286 -0.6884  0.4058
  905SOL     MW 3620   2.305   2.441   2.096  0.5597  0.1449  0.0718
  906SOL     OW 3621   2.491   2.526   0.760 -0.1215  0.2035  0.0094
  906SOL    HW1 3622   2.582   2.514   0.782  1.6672 -0.7761  1.8960
  906SOL    HW2 3623   2.463   2.609   0.798  0.5674  1.4864 -1.3709
  906SOL     MW 3624   2.499   2.536   0.768  0.2054  0.2435  0.0762
  907SOL     OW 3625   2.655   2.879   1.270  0.3603 -0.8726  0.3104
  907SOL    HW1 3626   2.731   2.915   1.322  2.8758  0.0763 -1.2075
  907SOL    HW2 3627   2.694   2.847   1.195 -0.2153  3.4481  1.7928
  907SOL     MW 3628   2.670   2.880   1.267  0.6163 -0.1773  0.3057
  908SOL     OW 3629   2.725   2.409   0.023 -0.0102 -0.7787 -0.3948
  908SOL    HW1 3630   2.698   2.323   0.056 -1.6058  0.9654 -0.0861
  908SOL    HW2 3631   2.664   2.457   0.083 -0.4643 -0.3727  2.5929
  908SOL     MW 3632   2.713   2.404   0.035 -0.2806 -0.4950  0.0402
  909SOL     OW 3633   1.697   0.102   1.290 -0.2698 -0.6130  0.5252
  909SOL    HW1 3634   1.646   0.183   1.287 -1.3158 -0.3508 -2.5431
  909SOL    HW2 3635   1.693   0.063   1.377  1.5417 -1.0036 -1.1102
  909SOL     MW 3636   1.690   0.107   1.301 -0.1688 -0.6300 -0.0954
  910SOL     OW 3637   2.131   1.634   0.395 -0.3999  0.1492 -0.1264
  910SOL    HW1 3638   2.083   1.545   0.376 -3.5581  2.0678 -0.2863
  910SOL    HW2 3639   2.091   1.689   0.327 -0.3981 -1.3855  1.1891
  910SOL     MW 3640   2.119   1.629   0.384 -0.8164  0.1998  0.0260
  911SOL     OW 3641   2.340   2.127   1.586  0.3061  0.1702 -0.1117
  911SOL    HW1 3642   2.425   2.156   1.628 -1.8846 -1.1024 -0.0566
  911SOL    HW2 3643   2.365   2.141   1.491  0.4888  0.9383  0.4701
  911SOL     MW 3644   2.355   2.133   1.579  0.0412  0.1036 -0.0277
  912SOL     OW 3645   2.915   1.869   1.399 -0.2644 -0.2250 -0.3678
  912SOL    HW1 3646   2.925   1.922   1.328 -1.9366  2.4425  1.1311
  912SOL    HW2 3647   2.823   1.887   1.421  2.3816 -0.6384 -0.7061
  912SOL     MW 3648   2.904   1.878   1.392 -0.1359  0.0724 -0.2147
  913SOL     OW 3649   2.703   3.080   0.260 -0.3224  0.3212 -0.2894
  913SOL    HW1 3650   2.783   3.024   0.259 -1.6623 -1.3232  1.4890
  913SOL    HW2 3651   2.620   3.023   0.258 -1.0141  0.0980 -1.1716
  913SOL     MW 3652   2.702   3.065   0.260 -0.5905  0.0748 -0.1711
  914SOL     OW 3653   2.710   1.811   2.930 -0.0536 -0.0066  0.1186
  914SOL    HW1 3654   2.723   1.908   2.934  0.3878 -2.4881 -0.8001
  914SOL    HW2 3655   2.624   1.796   2.957  1.4126 -0.0778 -0.5113
  914SOL     MW 3656   2.700   1.822   2.934  0.1981 -0.3434 -0.0857
  915SOL     OW 3657   1.816   0.122   0.105  0.0424  0.2644  0.1023
  915SOL    HW1 3658   1.887   0.068   0.145  1.3137 -0.5920  1.6439
  915SOL    HW2 3659   1.735   0.073   0.121  3.3044 -0.4324 -0.2152
  915SOL     MW 3660   1.815   0.109   0.112  0.6405  0.0595  0.2638
  916SOL     OW 3661   1.756   2.174   2.015  0.3376 -0.0375 -0.0829
  916SOL    HW1 3662   1.803   2.250   1.978 -0.5404 -2.3851 -1.0434
  916SOL    HW2 3663   1.773   2.111   1.946  0.3838  0.4150  0.1077
  916SOL     MW 3664   1.764   2.176   2.001  0.2278 -0.2876 -0.1844
  917SOL     OW 3665   2.533   2.223   2.592  0.4830 -0.1434 -0.0581
  917SOL    HW1 3666   2.503   2.289   2.659  2.2608  0.8688  0.5106
  917SOL    HW2 3667   2.622   2.248   2.572  2.3559  0.8343 -0.2778
  917SOL     MW 3668   2.541   2.235   2.598  0.9647  0.1192 -0.0121
  918SOL     OW 3669   2.089   1.623   2.634 -0.0514  0.1951  0.5236
  918SOL    HW1 3670   2.020   1.663   2.583 -0.5519  0.4179 -2.2320
  918SOL    HW2 3671   2.150   1.700   2.644 -0.2006 -0.5771  1.1163
  918SOL     MW 3672   2.088   1.638   2.629 -0.1371  0.1226  0.2383
  919SOL     OW 3673   3.087   2.417   2.239 -0.3336  0.2473  0.2897
  919SOL    HW1 3674   3.040   2.335   2.231 -0.9452 -1.6215 -3.8194
  919SOL    HW2 3675   3.129   2.420   2.152 -0.6852 -0.4913  1.6144
  919SOL     MW 3676   3.086   2.406   2.226 -0.4607 -0.0967 -0.0776
  920SOL     OW 3677   2.656   2.762   3.042 -0.3582  0.3893  0.3441
  920SOL    HW1 3678   2.576   2.799   3.015  1.4646 -0.7111 -1.1461
  920SOL    HW2 3679   2.709   2.767   2.958 -1.6757  1.5678  1.2720
  920SOL     MW 3680   2.653   2.768   3.028 -0.2915  0.3996  0.2699
  921SOL     OW 3681   2.480   2.631   2.637 -0.2809 -0.0657  0.3613
  921SOL    HW1 3682   2.569   2.639   2.600 -0.2200 -2.1645 -0.0285
  921SOL    HW2 3683   2.489   2.559   2.698 -1.6506 -0.4996  1.0539
  921SOL     MW 3684   2.493   2.623   2.640 -0.4536 -0.3999  0.4012
  922SOL     OW 3685   2.087   2.677   0.416 -0.1196 -0.7290  0.2867
  922SOL    HW1 3686   2.056   2.675   0.326  0.5965 -1.1782  2.2189
  922SOL    HW2 3687   2.151   2.602   0.421 -0.9425  2.3098 -1.4245
  922SOL     MW 3688   2.091   2.667   0.404 -0.1337 -0.3873  0.3159
  923SOL     OW 3689   2.199   2.902   1.678  0.0786  0.2761  0.2251
  923SOL    HW1 3690   2.274   2.869   1.624  0.3428  1.7987 -1.0698
  923SOL    HW2 3691   2.132   2.947   1.624 -0.8139  0.2723  1.5752
  923SOL     MW 3692   2.200   2.903   1.664 -0.0043  0.4765  0.2324
  924SOL     OW 3693   1.066   2.740   2.608 -0.4116  0.0634  0.4514
  924SOL    HW1 3694   1.163   2.763   2.616 -0.3319  0.8779 -0.3256
  924SOL    HW2 3695   1.065   2.655   2.649  1.7447 -2.2766  0.1487
  924SOL     MW 3696   1.079   2.732   2.615 -0.1166 -0.1379  0.3089
  925SOL     OW 3697   2.984   0.238   2.653  0.1256  0.0437 -0.7259
  925SOL    HW1 3698   2.946   0.245   2.562 -0.1959 -0.6007 -0.6176
  925SOL    HW2 3699   2.967   0.322   2.690  1.2481  1.0322  0.3353
  925SOL     MW 3700   2.977   0.250   2.646  0.2313  0.0891 -0.5716
  926SOL     OW 3701   2.806   2.363   1.948  0.0346  0.5275 -0.4059
  926SOL    HW1 3702   2.820   2.441   2.000 -2.3783 -2.0907 -1.7719
  926SOL    HW2 3703   2.851   2.381   1.861  0.9544  0.0416  0.2502
  926SOL     MW 3704   2.814   2.375   1.943 -0.1624  0.1179 -0.4995
  927SOL     OW 3705   2.371   0.155   0.290 -0.1503 -0.1122  0.4962
  927SOL    HW1 3706   2.463   0.185   0.304  1.6957  0.6041 -1.3437
  927SOL    HW2 3707   2.376   0.128   0.197  2.6187 -0.1483 -2.6863
  927SOL     MW 3708   2.384   0.155   0.279  0.4586 -0.0225 -0.1664
  928SOL     OW 3709   2.142   2.348   1.789  0.9035 -0.5094  0.5377
  928SOL    HW1 3710   2.129   2.419   1.726 -3.7239  0.2144  0.9363
  928SOL    HW2 3711   2.232   2.352   1.817 -0.8347  0.6607  0.6005
  928SOL     MW 3712   2.152   2.358   1.784  0.0636 -0.2595  0.5986
  929SOL     OW 3713   2.762   2.348   2.489 -0.7224 -0.1949  0.1215
  929SOL    HW1 3714   2.800   2.330   2.398  0.9425 -0.9120 -4.0108
  929SOL    HW2 3715   2.834   2.341   2.552  3.2519  1.3189 -2.6909
  929SOL     MW 3716   2.776   2.345   2.485  0.0216 -0.0898 -0.7948
  930SOL     OW 3717   2.039   2.800   2.669 -0.4835 -0.1466 -0.1959
  930SOL    HW1 3718   2.044   2.731   2.733 -2.0084 -0.0392 -2.2684
  930SOL    HW2 3719   2.111   2.860   2.664  0.4526  0.6444  3.3394
  930SOL     MW 3720   2.049   2.799   2.677 -0.5612 -0.0280 -0.0029
  931SOL     OW 3721   0.044   2.777   2.458  0.1530  0.3170 -0.4510
  931SOL    HW1 3722   0.020   2.834   2.538  1.7442 -1.3721 -1.6939
  931SOL    HW2 3723   0.118   2.827   2.416 -0.3354 -0.1500 -0.3831
  931SOL     MW 3724   0.050   2.791   2.463  0.2985  0.0325 -0.6060
  932SOL     OW 3725   2.836   1.972   2.529 -0.2656  0.5458  0.1624
  932SOL    HW1 3726   2.933   1.982   2.524  0.6322 -0.6730 -0.7942
  932SOL    HW2 3727   2.807   1.962   2.437  1.0244  0.3905  0.4972
  932SOL     MW 3728   2.845   1.972   2.516  0.0231  0.3645  0.0803
  933SOL     OW 3729   2.087   2.804   2.209  0.3763  0.0470 -0.0708
  933SOL    HW1 3730   2.168   2.845   2.241  2.1826  3.4319  1.1090
  933SOL    HW2 3731   2.025   2.868   2.198 -0.4589 -1.1850  0.2776
  933SOL     MW 3732   2.089   2.818   2.212  0.5045  0.3311  0.1308
  934SOL     OW 3733   2.018   2.652   2.430  0.2336  0.3848  0.1564
  934SOL    HW1 3734   2.032   2.712   2.502 -3.8157 -1.4923 -1.0828
  934SOL    HW2 3735   2.045   2.695   2.339 -2.4638  1.8608  0.1171
  934SOL     MW 3736   2.024   2.665   2.428 -0.6566  0.3319 -0.0123
  935SOL     OW 3737   2.642   1.475   1.769  0.0059 -0.3643  0.1797
  935SOL    HW1 3738   2.731   1.484   1.734 -0.3192 -0.9621 -2.1624
  935SOL    HW2 3739   2.599   1.491   1.681  1.3734  1.3884 -0.5065
  935SOL     MW 3740   2.648   1.478   1.753  0.1434 -0.2119 -0.2198
  936SOL     OW 3741   2.938   2.248   0.015 -0.1518  0.2003  0.5500
  936SOL    HW1 3742   3.007   2.281   0.072 -2.0541 -0.9019  0.2384
  936SOL    HW2 3743   2.875   2.321   0.019  3.1638 -0.2963 -2.7634
  936SOL     MW 3744   2.939   2.262   0.023  0.0346 -0.0107  0.0717
  937SOL     OW 3745   1.979   2.119   2.674 -0.5117 -0.3293 -0.1522
  937SOL    HW1 3746   2.063   2.086   2.707 -1.6949 -1.3783  2.5998
  937SOL    HW2 3747   1.982   2.122   2.579  0.1678 -2.0608  1.3194
  937SOL     MW 3748   1.991   2.115   2.666 -0.5782 -0.6961  0.4050
  938SOL     OW 3749   2.349   1.709   1.850 -0.8322  0.0087 -0.7026
  938SOL    HW1 3750   2.347   1.763   1.766 -0.7287  0.1543 -3.1397
  938SOL    HW2 3751   2.323   1.764   1.931 -1.4138 -1.8836  0.8101
  938SOL     MW 3752   2.345   1.723   1.849 -0.8953 -0.2218 -0.8246
  939SOL     OW 3753   2.779   1.941   2.258 -0.0537  0.1058 -0.3160
  939SOL    HW1 3754   2.805   1.923   2.167  1.0003 -0.5271 -0.1902
  939SOL    HW2 3755   2.687   1.908   2.261 -1.1014 -2.0565  0.1746
  939SOL     MW 3756   2.770   1.934   2.246 -0.0528 -0.2630 -0.2347
  940SOL     OW 3757   2.191   0.125   2.707 -0.2880 -0.0531  0.5925
  940SOL    HW1 3758   2.210   0.037   2.675  0.5164 -1.8382  0.7712
  940SOL    HW2 3759   2.258   0.158   2.769  1.1559 -0.8770  1.2766
  940SOL     MW 3760   2.202   0.118   2.711  0.0086 -0.3974  0.7064
  941SOL     OW 3761   0.148   2.448   2.043 -0.9026  0.1393 -0.2940
  941SOL    HW1 3762   0.213   2.390   2.077 -1.9987  4.3087 -0.8075
  941SOL    HW2 3763   0.140   2.439   1.948 -1.2096  2.1531 -0.5699
  941SOL     MW 3764   0.155   2.439   2.035 -1.0877  0.9551 -0.3981
  942SOL     OW 3765   2.885   2.240   2.202 -0.0649  0.0361  0.1119
  942SOL    HW1 3766   2.845   2.290   2.127  0.4497  2.0280 -0.7964
  942SOL    HW2 3767   2.842   2.159   2.221 -0.6782 -2.1677 -1.1985
  942SOL     MW 3768   2.874   2.236   2.195 -0.0779  0.0082 -0.1808
  943SOL     OW 3769   0.284   2.107   2.307  0.2416 -0.1168  0.5871
  943SOL    HW1 3770   0.224   2.169   2.354  2.0132 -0.1443 -2.5047
  943SOL    HW2 3771   0.363   2.087   2.362 -1.0513 -0.4053  0.1397
  943SOL     MW 3772   0.287   2.112   2.320  0.3047 -0.1585  0.1201
  944SOL     OW 3773   2.156   2.636   1.967 -0.2521  0.2169 -0.6908
  944SOL    HW1 3774   2.217   2.577   2.012  0.5173 -0.0189  0.1639
  944SOL    HW2 3775   2.088   2.655   2.028 -0.9113  2.3797  1.6976
  944SOL     MW 3776   2.155   2.630   1.981 -0.2376  0.4711 -0.2629
  945SOL     OW 3777   2.820   2.784   2.823  0.0910 -0.0514  0.2391
  945SOL    HW1 3778   2.824   2.692   2.824 -2.5710  2.4707 -1.8725
  945SOL    HW2 3779   2.811   2.806   2.723  2.6928 -1.6832  1.2928
  945SOL     MW 3780   2.820   2.775   2.810  0.0831  0.0661  0.0995
  946SOL     OW 3781   2.469   2.650   2.234 -0.3696 -0.0346  0.2693
  946SOL    HW1 3782   2.511   2.685   2.154  1.7496  2.5954 -2.6185
  946SOL    HW2 3783   2.389   2.613   2.197  2.8777 -0.0362 -2.6257
  946SOL     MW 3784   2.464   2.650   2.219  0.3384  0.3122 -0.4937
  947SOL     OW 3785   2.050   0.016   0.202  0.0628 -0.7296 -0.5628
  947SOL    HW1 3786   2.095  -0.047   0.141 -0.1628  3.6272  0.7456
  947SOL    HW2 3787   2.061  -0.011   0.289 -0.3319 -1.0968 -1.5746
  947SOL     MW 3788   2.057   0.004   0.205 -0.0191 -0.2032 -0.5237
  948SOL     OW 3789   1.784   2.999   2.612 -0.1458  0.0055  0.1939
  948SOL    HW1 3790   1.844   2.927   2.597  1.9641 -0.6011  0.5609
  948SOL    HW2 3791   1.751   3.034   2.527 -0.1200 -1.6392 -0.1373
  948SOL     MW 3792   1.787   2.994   2.599  0.1360 -0.2915  0.1986
  949SOL     OW 3793   2.486   1.890   2.202  0.2728 -0.4144 -0.0759
  949SOL    HW1 3794   2.492   1.806   2.244 -1.9834  1.4409 -1.0499
  949SOL    HW2 3795   2.452   1.956   2.267  2.0839 -0.8157 -0.1323
  949SOL     MW 3796   2.482   1.888   2.216  0.2140 -0.2226 -0.2118
  950SOL     OW 3797   2.336   2.554   2.998  0.4288 -0.1875 -0.0874
  950SOL    HW1 3798   2.375   2.505   2.926 -0.5882 -1.1832 -0.3779
  950SOL    HW2 3799   2.250   2.552   2.969 -0.4878 -1.3989  2.1404
  950SOL     MW 3800   2.330   2.547   2.985  0.1737 -0.4787  0.1682
  951SOL     OW 3801   3.058   2.203   2.860  0.4933 -0.2195  0.4866
  951SOL    HW1 3802   2.997   2.217   2.934 -3.4840 -0.5613  0.5609
  951SOL    HW2 3803   3.020   2.118   2.832  0.0279 -0.2044  2.9746
  951SOL     MW 3804   3.045   2.194   2.866 -0.0928 -0.2626  0.8247
  952SOL     OW 3805   3.035   1.699   2.133 -0.5766  0.4623  0.3136
  952SOL    HW1 3806   2.979   1.737   2.066  2.0699 -1.1368 -2.4112
  952SOL    HW2 3807   3.109   1.766   2.150  4.1948 -1.8682  0.1910
  952SOL     MW 3808   3.037   1.713   2.127  0.4021 -0.0561 -0.0621
  953SOL     OW 3809   1.960   1.707   2.930  0.0740 -0.1357  0.3657
  953SOL    HW1 3810   1.872   1.681   2.965 -0.6367 -1.7879 -3.4986
  953SOL    HW2 3811   1.961   1.644   2.859 -1.5339  1.7676  0.1724
  953SOL     MW 3812   1.948   1.695   2.925 -0.2319 -0.1025 -0.1697
  954SOL     OW 3813   2.420   2.145   2.918 -0.6245  0.2919 -0.1752
  954SOL    HW1 3814   2.326   2.150   2.910  0.1891  0.0656  4.1025
  954SOL    HW2 3815   2.460   2.108   2.840  2.1850  0.8780 -2.7476
  954SOL     MW 3816   2.413   2.141   2.907 -0.1465  0.3393  0.0498
  955SOL     OW 3817   1.593   1.521   2.537  0.0259 -0.2557  0.4164
  955SOL    HW1 3818   1.569   1.560   2.448  0.0488 -1.2035 -2.9063
  955SOL    HW2 3819   1.691   1.517   2.535  2.7924 -1.1316  0.7925
  955SOL     MW 3820   1.603   1.525   2.525  0.3940 -0.4963  0.0276
  956SOL     OW 3821   2.738   2.501   2.855  0.0040 -0.2211  0.1401
  956SOL    HW1 3822   2.742   2.483   2.947 -1.6711 -0.5425  1.1571
  956SOL    HW2 3823   2.792   2.437   2.809  0.7686 -0.4677  0.4213
  956SOL     MW 3824   2.745   2.490   2.861 -0.1161 -0.2961  0.3114
  957SOL     OW 3825   2.280   2.841   0.583  0.1335 -0.3335  0.2674
  957SOL    HW1 3826   2.202   2.807   0.528  0.8007  0.5972  0.7137
  957SOL    HW2 3827   2.291   2.786   0.655 -1.2427  0.2805  1.1491
  957SOL     MW 3828   2.271   2.829   0.585  0.0400 -0.1297  0.4426
  958SOL     OW 3829   2.066   2.583   2.881  0.2831 -0.2223  0.6872
  958SOL    HW1 3830   2.039   2.512   2.825  0.1946  3.5348 -2.3904
  958SOL    HW2 3831   1.992   2.607   2.933  0.2607 -3.4935  2.4655
  958SOL     MW 3832   2.052   2.577   2.881  0.2684 -0.1582  0.5158
  959SOL     OW 3833   2.518   2.813   0.456 -0.5376  0.2693 -0.0813
  959SOL    HW1 3834   2.512   2.847   0.366 -0.7684 -2.5044  0.0353
  959SOL    HW2 3835   2.430   2.821   0.497  0.6175  0.9904  0.9349
  959SOL     MW 3836   2.505   2.819   0.450 -0.4156 -0.0015  0.0681
  960SOL     OW 3837   1.919   2.362   2.268  0.1042  0.5126 -0.3971
  960SOL    HW1 3838   1.927   2.268   2.276  0.8199  1.7096 -1.1392
  960SOL    HW2 3839   1.865   2.384   2.344 -0.7847 -0.6829 -0.7385
  960SOL     MW 3840   1.913   2.352   2.279  0.0813  0.5128 -0.5400
  961SOL     OW 3841   2.249   2.296   2.298 -0.0007  0.0966  0.2953
  961SOL    HW1 3842   2.155   2.306   2.279  1.0480 -0.5680 -1.4564
  961SOL    HW2 3843   2.263   2.371   2.353 -1.4422  0.9754 -1.9316
  961SOL     MW 3844   2.239   2.307   2.303 -0.0525  0.1248 -0.2296
  962SOL     OW 3845   2.166   2.020   2.825 -0.5454 -0.3737  0.4228
  962SOL    HW1 3846   2.167   1.963   2.901 -1.5462 -0.2680  0.2552
  962SOL    HW2 3847   2.192   1.964   2.759 -0.9852  1.4641  3.7705
  962SOL     MW 3848   2.170   2.005   2.827 -0.7355 -0.1173  0.8424
  963SOL     OW 3849   1.881   2.596   2.090  0.3901  0.2285 -0.3807
  963SOL    HW1 3850   1.880   2.522   2.154  1.1719 -0.1628  1.9713
  963SOL    HW2 3851   1.880   2.539   2.005  0.9516 -0.2087 -1.6907
  963SOL     MW 3852   1.881   2.579   2.087  0.5673  0.1192 -0.2432
  964SOL     OW 3853   1.828   1.905   2.758  0.3509 -0.2492 -0.7166
  964SOL    HW1 3854   1.871   1.987   2.722  0.3644  0.2923 -0.4331
  964SOL    HW2 3855   1.881   1.857   2.821 -0.9184  3.5297 -2.2759
  964SOL     MW 3856   1.841   1.909   2.762  0.1852  0.3208 -0.8849
  965SOL     OW 3857   2.158   2.622   0.790 -1.0086 -0.0169  0.5876
  965SOL    HW1 3858   2.193   2.546   0.749 -3.6757 -0.7689 -0.3238
  965SOL    HW2 3859   2.230   2.658   0.839  0.9342 -1.5272  1.9128
  965SOL     MW 3860   2.172   2.617   0.791 -1.1042 -0.3154  0.6422
  966SOL     OW 3861   2.669   2.604   2.420  0.5134  0.2626 -0.0844
  966SOL    HW1 3862   2.596   2.607   2.351  2.1450 -3.2513  0.3005
  966SOL    HW2 3863   2.681   2.511   2.450 -3.0139  0.7310 -0.8692
  966SOL     MW 3864   2.661   2.592   2.415  0.2633 -0.1392 -0.1371
  967SOL     OW 3865   2.759   3.039   2.993 -0.2757  0.5406  0.6495
  967SOL    HW1 3866   2.742   2.960   3.046 -0.2607 -2.5921  3.2835
  967SOL    HW2 3867   2.687   3.033   2.927 -1.1033  2.3185 -0.2720
  967SOL     MW 3868   2.747   3.028   2.991 -0.3829  0.3618  0.8755
  968SOL     OW 3869   3.049   2.671   2.929  0.0335  0.2804 -0.2520
  968SOL    HW1 3870   2.977   2.729   2.903 -0.8761  2.2905 -0.7934
  968SOL    HW2 3871   3.072   2.627   2.846  0.3771 -0.3057 -1.9487
  968SOL     MW 3872   3.043   2.673   2.915 -0.0412  0.4683 -0.5473
  969SOL     OW 3873   1.565   2.204   1.719 -0.4628 -0.3036 -0.7233
  969SOL    HW1 3874   1.641   2.145   1.727 -0.5530 -0.0438  0.7049
  969SOL    HW2 3875   1.523   2.200   1.803 -1.0768 -0.9235  2.0071
  969SOL     MW 3876   1.570   2.195   1.731 -0.5557 -0.3511 -0.1746
  970SOL     OW 3877   1.765   1.817   1.923 -0.5846 -0.4290  0.1218
  970SOL    HW1 3878   1.817   1.747   1.959  0.8900  2.1698  1.0309
  970SOL    HW2 3879   1.673   1.806   1.943 -0.4505 -0.8928 -4.7791
  970SOL     MW 3880   1.760   1.806   1.930 -0.3724 -0.1473 -0.4049
  971SOL     OW 3881   1.717  -0.001   2.364 -0.3848  0.6534 -0.8152
  971SOL    HW1 3882   1.768  -0.039   2.284 -0.7670 -0.7698  1.1595
  971SOL    HW2 3883   1.737   0.092   2.371 -2.6990  0.7057 -0.5559
  971SOL     MW 3884   1.726   0.007   2.354 -0.7405  0.4725 -0.5204
  972SOL     OW 3885   0.312   2.907   2.383 -0.0715  0.0851  0.3315
  972SOL    HW1 3886   0.359   2.825   2.407  0.4908 -1.2052 -0.4116
  972SOL    HW2 3887   0.349   2.969   2.444 -0.1699 -0.1982 -1.4455
  972SOL     MW 3888   0.323   2.905   2.394 -0.0103 -0.1225 -0.0010
  973SOL     OW 3889   2.592   3.008   2.127  0.3561  0.0246 -0.2423
  973SOL    HW1 3890   2.557   2.923   2.091 -1.0198 -0.5875  0.3324
  973SOL    HW2 3891   2.639   3.043   2.049  4.9028  2.0092 -1.8774
  973SOL     MW 3892   2.593   3.001   2.112  0.7744  0.2057 -0.3822
  974SOL     OW 3893   1.957   0.166   2.589  0.1419 -0.1106  0.1688
  974SOL    HW1 3894   2.041   0.154   2.633 -1.5266  2.6466  3.2110
  974SOL    HW2 3895   1.907   0.089   2.622  0.9919 -0.5761 -1.1425
  974SOL     MW 3896   1.962   0.155   2.599  0.0339  0.1918  0.3972
  975SOL     OW 3897   2.220   2.490   2.510 -0.0926  0.1553  0.5270
  975SOL    HW1 3898   2.273   2.557   2.549 -0.9906  0.9716  3.3567
  975SOL    HW2 3899   2.148   2.538   2.459 -1.6313  1.6413 -3.8944
  975SOL     MW 3900   2.218   2.505   2.508 -0.4141  0.4590  0.3170
  976SOL     OW 3901   0.218   0.348   1.636 -0.0262  0.0568 -0.6045
  976SOL    HW1 3902   0.270   0.304   1.700  0.5631 -1.1442 -1.0808
  976SOL    HW2 3903   0.147   0.286   1.629 -0.1381  1.0152 -0.4528
  976SOL     MW 3904   0.215   0.334   1.643  0.0368  0.0248 -0.6473
  977SOL     OW 3905   1.752   2.767   2.381  0.4677  0.1894 -0.0350
  977SOL    HW1 3906   1.840   2.724   2.375 -1.1682 -3.7094  0.9506
  977SOL    HW2 3907   1.761   2.818   2.303  1.1068  0.5528 -0.2807
  977SOL     MW 3908   1.765   2.768   2.370  0.3362 -0.2771  0.0626
   3.10000   3.10000   3.10000
