977 TIP4P/2005f water molecules t=   0.85000 step= 850
 3908
    1SOL     OW    1   0.318   0.830   3.050  0.7108 -0.4834  0.1412
    1SOL    HW1    2   0.304   0.849   2.956  0.8012 -0.3170 -2.4077
    1SOL    HW2    3   0.272   0.750   3.058  1.9826  2.2378  0.7509
    1SOL     MW    4   0.310   0.822   3.039  0.8906 -0.1024 -0.1147
    2SOL     OW    5   0.308   2.991   1.181  0.3979 -0.0472  0.0658
    2SOL    HW1    6   0.360   3.057   1.136  1.7209 -0.3830  0.8861
    2SOL    HW2    7   0.215   3.024   1.166 -1.3039 -1.9135 -0.2444
    2SOL     MW    8   0.302   3.004   1.173  0.3480 -0.3378  0.1331
    3SOL     OW    9   2.634   0.423   0.963  0.1788  0.0679 -0.4311
    3SOL    HW1   10   2.665   0.501   0.905  0.9663  2.2965  3.8407
    3SOL    HW2   11   2.635   0.469   1.053  1.5143  1.4375  2.9202
    3SOL     MW   12   2.638   0.439   0.967  0.4589  0.5426  0.5747
    4SOL     OW   13   2.995   1.708   0.629  0.1402 -0.8401 -0.3174
    4SOL    HW1   14   2.919   1.752   0.577 -1.3127  3.8642  0.9173
    4SOL    HW2   15   3.050   1.666   0.566  1.6796  0.8536 -0.4916
    4SOL     MW   16   2.992   1.708   0.614  0.1516  0.0041 -0.1775
    5SOL     OW   17   1.748   1.508   0.519 -0.0585 -0.2220 -0.4187
    5SOL    HW1   18   1.794   1.467   0.598 -0.2043 -0.2783  2.2354
    5SOL    HW2   19   1.651   1.493   0.521  2.0937  0.8400  2.3758
    5SOL     MW   20   1.742   1.500   0.530  0.2062 -0.0893  0.3002
    6SOL     OW   21   0.837   1.459   0.606 -0.4127  0.3169 -0.0949
    6SOL    HW1   22   0.755   1.494   0.644 -2.1845  0.6101 -2.4415
    6SOL    HW2   23   0.848   1.370   0.640  1.2898 -2.3260  1.3422
    6SOL     MW   24   0.828   1.452   0.615 -0.4219  0.0069 -0.2149
    7SOL     OW   25   2.040   1.155   3.067  0.6257 -0.1713  0.1592
    7SOL    HW1   26   2.104   1.217   3.037  0.0683  2.0839 -0.6252
    7SOL    HW2   27   2.067   1.151   3.161  0.1972 -0.0524 -0.4410
    7SOL     MW   28   2.052   1.163   3.075  0.4956  0.1419 -0.0235
    8SOL     OW   29   0.921   1.377   1.030 -0.0605  0.5058  0.0188
    8SOL    HW1   30   1.010   1.387   1.029 -1.7456  1.6493 -0.6284
    8SOL    HW2   31   0.898   1.321   1.100 -1.0446  2.0902  1.0392
    8SOL     MW   32   0.930   1.371   1.039 -0.4127  0.8657  0.0680
    9SOL     OW   33   1.023   0.522   1.394 -0.3647  0.1360  0.0145
    9SOL    HW1   34   0.959   0.461   1.352 -2.8344  0.1869  1.5831
    9SOL    HW2   35   1.078   0.464   1.451  1.8539 -2.2975  0.6827
    9SOL     MW   36   1.022   0.507   1.396 -0.3978 -0.1783  0.3096
   10SOL     OW   37   0.288   0.798   0.473 -0.6003 -0.9640 -0.0558
   10SOL    HW1   38   0.373   0.815   0.424 -0.6856  1.3054  1.1490
   10SOL    HW2   39   0.279   0.870   0.537  2.2944 -0.6836 -1.1085
   10SOL     MW   40   0.298   0.809   0.475 -0.2296 -0.6276 -0.0358
   11SOL     OW   41   0.803   1.129   1.728  0.1364  0.1844 -0.1061
   11SOL    HW1   42   0.832   1.111   1.820  2.8212 -5.3647  0.9972
   11SOL    HW2   43   0.799   1.045   1.667 -1.6876  0.7257 -1.3468
   11SOL     MW   44   0.806   1.115   1.732  0.2500 -0.4763 -0.1243
   12SOL     OW   45   0.022   1.067   0.879  0.2933  0.5521 -0.0397
   12SOL    HW1   46   0.082   1.143   0.922  0.8463  3.8045 -1.5510
   12SOL    HW2   47  -0.024   1.112   0.803  0.3247  0.9182  0.3678
   12SOL     MW   48   0.024   1.083   0.875  0.3704  1.0296 -0.1853
   13SOL     OW   49   1.837   1.412   1.368 -0.1643  0.9576  0.1590
   13SOL    HW1   50   1.865   1.339   1.315 -0.1610 -1.3648  0.3632
   13SOL    HW2   51   1.869   1.495   1.331 -1.6033  1.4324  0.8962
   13SOL     MW   52   1.845   1.413   1.356 -0.3537  0.7139  0.2832
   14SOL     OW   53   0.660   0.404   1.863 -0.1677 -0.3930  0.2400
   14SOL    HW1   54   0.588   0.345   1.869 -1.1858  1.1334  0.9599
   14SOL    HW2   55   0.719   0.381   1.937  1.7155  0.6463  0.5376
   14SOL     MW   56   0.658   0.393   1.874 -0.0535 -0.0545  0.3743
   15SOL     OW   57   1.938   0.413   0.998  0.6388 -0.4404  0.7487
   15SOL    HW1   58   1.947   0.457   1.086  1.1154 -1.4348  0.0532
   15SOL    HW2   59   2.020   0.410   0.945  0.5628  1.1630  0.1191
   15SOL     MW   60   1.950   0.418   1.003  0.6917 -0.3601  0.5739
   16SOL     OW   61   0.171   1.827   0.330 -0.4688 -0.2927  0.0871
   16SOL    HW1   62   0.253   1.797   0.372 -1.0188  1.0296  0.5870
   16SOL    HW2   63   0.165   1.920   0.360 -0.5924  0.5045 -1.4037
   16SOL     MW   64   0.181   1.835   0.340 -0.5577 -0.0131 -0.0436
   17SOL     OW   65   1.111   0.910   1.511  0.0209 -0.2610 -0.3273
   17SOL    HW1   66   1.162   0.889   1.591 -1.7579  0.3804 -1.2884
   17SOL    HW2   67   1.017   0.916   1.531  2.7032 -0.2014 -1.9777
   17SOL     MW   68   1.105   0.908   1.524  0.1401 -0.1685 -0.6719
   18SOL     OW   69   0.073   1.578   0.380  0.0803 -0.4927  0.4365
   18SOL    HW1   70   0.093   1.673   0.360  0.9562  0.9609  1.2284
   18SOL    HW2   71   0.085   1.544   0.294 -2.4766 -0.1484  2.1689
   18SOL     MW   72   0.077   1.586   0.366 -0.1415 -0.2555  0.7695
   19SOL     OW   73   0.128   1.305   0.995  0.6049 -0.0052  0.1750
   19SOL    HW1   74   0.143   1.354   0.917 -3.0364  2.0749  0.2080
   19SOL    HW2   75   0.037   1.327   1.020 -0.5001  1.2331 -3.4557
   19SOL     MW   76   0.118   1.315   0.988 -0.0213  0.4326 -0.2997
   20SOL     OW   77   0.440   2.137   1.153  0.4403  0.4338  0.0626
   20SOL    HW1   78   0.381   2.055   1.140 -2.7763  0.8401 -2.2958
   20SOL    HW2   79   0.400   2.183   1.224  2.5335  1.6269  2.3721
   20SOL     MW   80   0.427   2.132   1.161  0.2921  0.6448  0.0561
   21SOL     OW   81   0.537   0.818   0.343 -0.0029 -0.0800 -0.1060
   21SOL    HW1   82   0.597   0.794   0.411  0.1066  2.9886 -0.3183
   21SOL    HW2   83   0.576   0.793   0.259 -2.1439  0.1109 -0.0620
   21SOL     MW   84   0.550   0.812   0.341 -0.2709  0.3501 -0.1282
   22SOL     OW   85   1.514   0.688   1.060  0.4387  1.2613  0.4590
   22SOL    HW1   86   1.473   0.648   0.979 -0.3259  0.9915 -4.2694
   22SOL    HW2   87   1.458   0.755   1.095  1.3416 -0.1254  1.7526
   22SOL     MW   88   1.501   0.691   1.054  0.4570  1.0427  0.0058
   23SOL     OW   89   0.038   0.760   0.669  0.0509  0.0356 -0.0712
   23SOL    HW1   90   0.062   0.693   0.734 -1.2408 -0.9034 -1.8175
   23SOL    HW2   91   0.112   0.826   0.673 -1.9576  0.8814 -1.9126
   23SOL     MW   92   0.051   0.760   0.678 -0.3846  0.0233 -0.5446
   24SOL     OW   93   1.970   2.230   0.113  0.3393  0.2064 -0.4333
   24SOL    HW1   94   1.995   2.200   0.207 -0.8277 -1.4711  2.7081
   24SOL    HW2   95   1.985   2.152   0.057 -2.7169 -2.0818  0.3802
   24SOL     MW   96   1.975   2.216   0.118 -0.2179 -0.3168  0.0885
   25SOL     OW   97   0.237   1.395   0.492 -0.0017  0.6052 -0.0502
   25SOL    HW1   98   0.184   1.468   0.459  1.2080  0.7509  0.8144
   25SOL    HW2   99   0.333   1.425   0.477  1.6914  2.9901 -0.6341
   25SOL     MW  100   0.243   1.409   0.486  0.3813  0.9391 -0.0131
   26SOL     OW  101   2.030   0.976   0.356  0.0655 -0.2445  0.0543
   26SOL    HW1  102   1.979   1.014   0.424  0.6730  0.1731 -0.8924
   26SOL    HW2  103   2.066   1.051   0.307 -1.0308  2.0831 -3.3519
   26SOL     MW  104   2.028   0.991   0.359  0.0010  0.1177 -0.5200
   27SOL     OW  105   2.033   1.439   0.266  0.0103 -0.0800 -0.0926
   27SOL    HW1  106   1.950   1.399   0.301  1.7780 -1.2819  3.5458
   27SOL    HW2  107   2.078   1.499   0.331  2.7887 -1.6443 -0.0494
   27SOL     MW  108   2.028   1.441   0.279  0.6101 -0.4450  0.3931
   28SOL     OW  109   0.378   1.001   1.999  0.3053 -0.8658 -0.0569
   28SOL    HW1  110   0.447   0.942   1.988 -3.2974 -0.9268  2.8293
   28SOL    HW2  111   0.313   0.939   2.026  1.0009  0.3481 -6.4216
   28SOL     MW  112   0.378   0.985   2.001 -0.0782 -0.7137 -0.5159
   29SOL     OW  113   0.238   1.450   0.780  0.0545 -0.1455  0.8084
   29SOL    HW1  114   0.220   1.546   0.786  0.4063  0.1140  0.5331
   29SOL    HW2  115   0.233   1.434   0.685  2.0038 -0.7885  2.3732
   29SOL     MW  116   0.235   1.460   0.769  0.3581 -0.1961  0.9785
   30SOL     OW  117   0.815   1.168   1.213  0.6509  0.0202 -0.3630
   30SOL    HW1  118   0.735   1.186   1.271 -0.6904 -1.5992  2.2459
   30SOL    HW2  119   0.890   1.184   1.277 -1.3053  0.6892  3.6199
   30SOL     MW  120   0.815   1.172   1.229  0.2159 -0.1052  0.5067
   31SOL     OW  121   0.415   0.156   0.203 -0.5695  0.2158  0.1199
   31SOL    HW1  122   0.441   0.094   0.272 -2.1500  2.8043  0.1346
   31SOL    HW2  123   0.385   0.091   0.139  2.8766  0.8377  2.1686
   31SOL     MW  124   0.415   0.139   0.204 -0.3234  0.6394  0.3921
   32SOL     OW  125   2.792   0.986   1.120 -0.0252 -0.2180 -0.0255
   32SOL    HW1  126   2.713   0.932   1.113  3.0609 -0.3029 -1.2776
   32SOL    HW2  127   2.874   0.942   1.100 -2.1765 -0.1686 -2.6179
   32SOL     MW  128   2.793   0.973   1.116  0.0982 -0.2226 -0.5327
   33SOL     OW  129   1.797   1.307   0.343 -1.0910 -0.0622 -0.4036
   33SOL    HW1  130   1.807   1.234   0.401  0.4223  2.2684  2.7391
   33SOL    HW2  131   1.775   1.387   0.394  1.7809  3.7253 -2.9556
   33SOL     MW  132   1.795   1.308   0.357 -0.5124  0.7450 -0.3256
   34SOL     OW  133   1.237   1.860   1.072 -0.2423  0.1574 -0.0449
   34SOL    HW1  134   1.146   1.871   1.087  0.3458 -3.3439  0.6644
   34SOL    HW2  135   1.293   1.876   1.152 -0.3718  1.2862 -1.6417
   34SOL     MW  136   1.232   1.864   1.085 -0.1818 -0.1556 -0.1620
   35SOL     OW  137   0.455   0.205   1.857  0.3040  0.5885 -0.5370
   35SOL    HW1  138   0.441   0.134   1.918  2.0719  0.4824  0.9542
   35SOL    HW2  139   0.476   0.164   1.767  0.4482  1.7777 -3.9913
   35SOL     MW  140   0.456   0.191   1.853  0.5563  0.7314 -0.7960
   36SOL     OW  141   1.931   1.947   0.545  0.4498  0.3270 -0.2106
   36SOL    HW1  142   1.931   1.938   0.444  0.8628  0.2883  0.2519
   36SOL    HW2  143   1.938   1.852   0.578  1.9448  0.4804 -0.2251
   36SOL     MW  144   1.931   1.933   0.536  0.7016  0.3421 -0.1515
   37SOL     OW  145   1.746   1.984   1.008  0.1705  0.1167 -0.4723
   37SOL    HW1  146   1.682   1.945   0.956 -0.8199  0.3142  1.2984
   37SOL    HW2  147   1.697   2.046   1.059  0.1674 -0.1142 -1.1438
   37SOL     MW  148   1.731   1.987   1.008  0.0394  0.1123 -0.3273
   38SOL     OW  149   2.781   0.923   0.115  0.3760  0.2070  0.0258
   38SOL    HW1  150   2.824   0.923   0.199 -1.0869 -1.9654  0.0486
   38SOL    HW2  151   2.849   0.905   0.045  2.8154 -2.3095 -0.4903
   38SOL     MW  152   2.796   0.921   0.117  0.5049 -0.4117 -0.0393
   39SOL     OW  153   1.427   0.606   0.814  0.6834  0.2594 -0.6565
   39SOL    HW1  154   1.396   0.513   0.817  0.3313 -0.5733  1.2715
   39SOL    HW2  155   1.357   0.656   0.766 -2.7415  1.0873  0.5349
   39SOL     MW  156   1.414   0.600   0.808  0.1851  0.2587 -0.2449
   40SOL     OW  157   1.145   1.885   0.267 -0.3393  0.2202  0.1905
   40SOL    HW1  158   1.223   1.841   0.300  1.4741  0.5561  0.7989
   40SOL    HW2  159   1.142   1.963   0.319  2.1612 -1.9889 -0.6603
   40SOL     MW  160   1.155   1.890   0.278  0.2299 -0.0269  0.1585
   41SOL     OW  161   0.587   0.545   1.609 -0.2178  0.2477  0.0492
   41SOL    HW1  162   0.672   0.585   1.597 -0.8158  0.2030 -1.0936
   41SOL    HW2  163   0.603   0.470   1.672 -0.3592 -3.0567 -1.0317
   41SOL     MW  164   0.601   0.540   1.615 -0.3154 -0.1942 -0.2442
   42SOL     OW  165   1.296   3.021   1.963 -0.0817 -0.2723  0.5146
   42SOL    HW1  166   1.204   3.047   1.993  0.2981 -0.7075  1.4009
   42SOL    HW2  167   1.333   2.963   2.026  1.4176 -0.5051 -3.7302
   42SOL     MW  168   1.288   3.017   1.976  0.1662 -0.3604  0.0715
   43SOL     OW  169   1.582   0.102   1.721  0.3182 -0.1289 -0.5122
   43SOL    HW1  170   1.600   0.070   1.632  0.6897 -0.0610  1.3846
   43SOL    HW2  171   1.487   0.081   1.735 -0.6748 -1.4099 -0.7258
   43SOL     MW  172   1.572   0.095   1.712  0.2362 -0.2889 -0.2901
   44SOL     OW  173   1.071   0.753   1.026 -0.6304  0.6731 -0.4712
   44SOL    HW1  174   1.073   0.846   1.006 -2.4567  0.1641  1.2916
   44SOL    HW2  175   1.061   0.748   1.119 -0.4893  1.1055 -2.4086
   44SOL     MW  176   1.070   0.765   1.036 -0.8528  0.6630 -0.4943
   45SOL     OW  177   1.238   0.739   0.698  0.7217  0.4308 -0.7919
   45SOL    HW1  178   1.173   0.735   0.770 -2.1968 -0.7173 -1.8480
   45SOL    HW2  179   1.189   0.701   0.625 -1.6415 -1.2380  0.5090
   45SOL     MW  180   1.223   0.734   0.698  0.0249  0.0591 -0.7596
   46SOL     OW  181   0.569   1.167   0.579 -0.3901 -0.3698  0.9781
   46SOL    HW1  182   0.527   1.132   0.499 -1.2017  1.2834  1.2483
   46SOL    HW2  183   0.667   1.151   0.578  2.3882  1.6851  1.0719
   46SOL     MW  184   0.576   1.160   0.568 -0.1306  0.1194  1.0261
   47SOL     OW  185   0.165   2.001   1.916 -0.4717  0.1065  0.6563
   47SOL    HW1  186   0.220   1.943   1.857 -1.2098  0.3008 -1.0498
   47SOL    HW2  187   0.173   1.974   2.005  1.4637  0.7102  1.6449
   47SOL     MW  188   0.173   1.990   1.920 -0.3137  0.2118  0.5616
   48SOL     OW  189   1.094   0.498   0.957  0.3969  0.0625 -0.2082
   48SOL    HW1  190   1.012   0.456   0.975  0.2022 -1.5824 -0.2811
   48SOL    HW2  191   1.089   0.592   0.980 -1.0350 -3.1620  0.6775
   48SOL     MW  192   1.082   0.505   0.962  0.1823 -0.5799 -0.1010
   49SOL     OW  193   1.838   0.732   1.587  0.0166  0.2193 -0.6441
   49SOL    HW1  194   1.786   0.672   1.648  0.3548 -0.7900  2.6777
   49SOL    HW2  195   1.875   0.676   1.523 -0.8736 -2.0192  2.2507
   49SOL     MW  196   1.836   0.716   1.587 -0.0562 -0.2092  0.1761
   50SOL     OW  197   1.224   1.086   0.513  0.7875 -0.1642 -0.3884
   50SOL    HW1  198   1.186   1.118   0.596 -1.1648 -1.4814  2.7091
   50SOL    HW2  199   1.290   1.024   0.542 -1.5870 -1.2420  0.2889
   50SOL     MW  200   1.228   1.082   0.528  0.2166 -0.4802  0.1096
   51SOL     OW  201   0.289   2.898   0.923 -0.2825  0.5346 -0.2767
   51SOL    HW1  202   0.385   2.859   0.927  1.5995  2.1418  0.0158
   51SOL    HW2  203   0.272   2.920   1.017  1.6412  1.1828 -2.0267
   51SOL     MW  204   0.300   2.896   0.936  0.2196  0.8322 -0.4690
   52SOL     OW  205   0.817   1.813   0.445 -0.2593 -0.2266  0.6073
   52SOL    HW1  206   0.800   1.904   0.477  1.1297 -1.0208  0.1301
   52SOL    HW2  207   0.776   1.814   0.361  2.5030 -0.6251 -0.1699
   52SOL     MW  208   0.809   1.825   0.438  0.2884 -0.3840  0.4418
   53SOL     OW  209   0.423   2.123   0.588  0.2738  0.0457  0.0473
   53SOL    HW1  210   0.348   2.099   0.530  0.3064 -1.2495 -2.4617
   53SOL    HW2  211   0.442   2.214   0.582  3.8202 -0.7338  0.4658
   53SOL     MW  212   0.415   2.132   0.580  0.7460 -0.2280 -0.2285
   54SOL     OW  213   2.082   0.948   0.827 -0.4005  0.4189 -0.0186
   54SOL    HW1  214   2.099   0.939   0.732 -0.8747  2.1604 -0.2538
   54SOL    HW2  215   2.047   0.860   0.845  1.2062  0.0579 -1.7539
   54SOL     MW  216   2.080   0.935   0.817 -0.2511  0.6011 -0.2786
   55SOL     OW  217   0.574   1.537   1.664 -0.4612 -0.3516 -0.1790
   55SOL    HW1  218   0.498   1.573   1.622  0.2686  1.1881  0.0030
   55SOL    HW2  219   0.634   1.504   1.596 -2.5917 -1.5446  1.1291
   55SOL     MW  220   0.572   1.537   1.650 -0.6460 -0.3058  0.0176
   56SOL     OW  221   0.609   0.791   0.070 -0.1945  0.0995  0.6660
   56SOL    HW1  222   0.607   0.887   0.072  0.1432 -1.0448  0.5324
   56SOL    HW2  223   0.529   0.766   0.030 -0.5805  0.5234 -1.5628
   56SOL     MW  224   0.598   0.800   0.065 -0.2009  0.0044  0.3543
   57SOL     OW  225   1.197   1.223   1.138 -0.8266  0.5473 -0.3539
   57SOL    HW1  226   1.269   1.270   1.092  0.8966 -1.0602 -1.4931
   57SOL    HW2  227   1.240   1.176   1.216 -0.1939  0.5345 -1.0018
   57SOL     MW  228   1.212   1.223   1.142 -0.5158  0.3336 -0.5897
   58SOL     OW  229   0.528   1.181   1.329  0.2258 -0.6086  0.7340
   58SOL    HW1  230   0.526   1.272   1.298 -1.1447  1.1150 -0.0106
   58SOL    HW2  231   0.551   1.180   1.421  2.4792  0.6925  1.1554
   58SOL     MW  232   0.531   1.193   1.337  0.3423 -0.2095  0.6913
   59SOL     OW  233   1.552   1.698   0.332 -0.0593  0.0488  0.2835
   59SOL    HW1  234   1.604   1.720   0.407  0.2339  2.0971 -1.7784
   59SOL    HW2  235   1.459   1.700   0.372 -0.1637  4.2076  1.6895
   59SOL     MW  236   1.547   1.701   0.347 -0.0344  0.8678  0.1969
   60SOL     OW  237   0.009   0.185   1.581 -0.3756  0.6281 -0.0847
   60SOL    HW1  238  -0.077   0.217   1.588  2.3188 -0.6028 -1.8807
   60SOL    HW2  239   0.024   0.154   1.667  0.2167 -1.9906 -3.0180
   60SOL     MW  240  -0.000   0.185   1.593  0.0580  0.1202 -0.7087
   61SOL     OW  241   2.024   1.511   3.097 -0.0709  0.2426 -0.1365
   61SOL    HW1  242   1.991   1.484   3.183 -0.3382 -0.1097  0.9747
   61SOL    HW2  243   2.060   1.431   3.061  1.8934 -0.8207  1.9290
   61SOL     MW  244   2.024   1.497   3.104  0.1530  0.0559  0.2827
   62SOL     OW  245   0.585   1.725   0.644 -0.0115  0.4129  0.2802
   62SOL    HW1  246   0.660   1.745   0.585  1.8924  0.7861 -3.8160
   62SOL    HW2  247   0.588   1.629   0.663  0.2164  0.5733  0.6695
   62SOL     MW  248   0.595   1.715   0.639  0.2697  0.4833 -0.2089
   63SOL     OW  249   1.683   0.672   0.734  0.2008  0.1761  0.0606
   63SOL    HW1  250   1.678   0.743   0.671  0.1503 -1.3266 -0.5506
   63SOL    HW2  251   1.597   0.662   0.777 -0.2001  0.4836  0.7853
   63SOL     MW  252   1.671   0.680   0.732  0.1413  0.0184  0.0756
   64SOL     OW  253   0.187   1.711   0.782 -0.3005 -0.6218  0.4291
   64SOL    HW1  254   0.256   1.758   0.822  0.1583 -0.7743  0.6181
   64SOL    HW2  255   0.109   1.771   0.782 -4.5091  1.0385  0.0172
   64SOL     MW  256   0.186   1.725   0.787 -0.7952 -0.4228  0.3997
   65SOL     OW  257   1.569   2.318   0.388  0.3869 -0.7574 -0.2149
   65SOL    HW1  258   1.662   2.302   0.408  1.8251  2.1128  1.3682
   65SOL    HW2  259   1.537   2.376   0.455 -0.1274  0.1215  0.6315
   65SOL     MW  260   1.577   2.323   0.400  0.5088 -0.2627  0.1056
   66SOL     OW  261   0.291   0.537   0.550  0.0673 -0.1968  0.1763
   66SOL    HW1  262   0.354   0.494   0.490 -2.3611  0.2046 -0.2834
   66SOL    HW2  263   0.285   0.638   0.524  2.9163  2.5892 -1.5296
   66SOL     MW  264   0.299   0.544   0.539  0.1228  0.2237 -0.1094
   67SOL     OW  265   1.548   0.062   2.057  0.2521 -0.2446 -0.2416
   67SOL    HW1  266   1.619   0.071   1.999 -0.3199  1.3663 -0.2193
   67SOL    HW2  267   1.529  -0.030   2.068  1.4641 -0.4955  2.7443
   67SOL     MW  268   1.555   0.051   2.050  0.3366 -0.0652  0.1553
   68SOL     OW  269   0.695   0.124   2.940  0.2931 -0.8090  0.1789
   68SOL    HW1  270   0.677   0.182   2.869  0.9754 -2.7633  0.9952
   68SOL    HW2  271   0.768   0.165   2.991  0.0817 -1.3509 -2.9055
   68SOL     MW  272   0.702   0.137   2.937  0.3552 -1.1383 -0.1204
   69SOL     OW  273   1.027   0.218   2.003  0.4839  0.7291 -0.1322
   69SOL    HW1  274   1.123   0.226   2.018 -1.3517  2.1168 -0.4657
   69SOL    HW2  275   1.014   0.129   2.037  0.1382 -0.1403  2.3890
   69SOL     MW  276   1.038   0.207   2.009  0.1961  0.7975  0.1565
   70SOL     OW  277   0.538   1.727   1.129 -0.2609 -0.0008  0.1183
   70SOL    HW1  278   0.585   1.683   1.198 -0.4502  0.9947  0.5481
   70SOL    HW2  279   0.596   1.791   1.084 -1.8189  1.3378 -1.4377
   70SOL     MW  280   0.552   1.729   1.132 -0.4914  0.3072 -0.0303
   71SOL     OW  281   1.578   0.524   1.263 -0.4324 -0.1675 -0.2306
   71SOL    HW1  282   1.511   0.564   1.318 -0.1109  0.0054 -1.1604
   71SOL    HW2  283   1.562   0.562   1.175  0.3966 -0.2800 -0.1246
   71SOL     MW  284   1.567   0.534   1.259 -0.2806 -0.1595 -0.3393
   72SOL     OW  285   0.750   1.843   0.963  0.2019  0.4747 -0.2319
   72SOL    HW1  286   0.765   1.917   0.900  0.5401  3.3456  2.1146
   72SOL    HW2  287   0.743   1.761   0.919  2.0218 -0.7920  0.8086
   72SOL     MW  288   0.751   1.842   0.949  0.4866  0.6864  0.2150
   73SOL     OW  289   1.160   0.731   1.303  0.1443 -0.4015 -0.4863
   73SOL    HW1  290   1.122   0.645   1.336 -0.8708  1.4933  1.6432
   73SOL    HW2  291   1.131   0.797   1.368 -0.4607 -0.0586  0.0679
   73SOL     MW  292   1.152   0.729   1.316 -0.0694 -0.1063 -0.1322
   74SOL     OW  293   2.735   0.152   0.963 -0.5999 -0.6693  0.7085
   74SOL    HW1  294   2.819   0.164   0.916  1.2576 -1.2493 -0.5077
   74SOL    HW2  295   2.709   0.246   0.972 -0.1901 -0.1402  0.0108
   74SOL     MW  296   2.743   0.166   0.958 -0.3007 -0.6760  0.4560
   75SOL     OW  297   1.642   1.384   0.123 -0.3896 -0.4243  0.4491
   75SOL    HW1  298   1.693   1.464   0.118 -0.5306  0.1732 -0.9072
   75SOL    HW2  299   1.676   1.350   0.206  0.1727 -1.5836 -1.8491
   75SOL     MW  300   1.653   1.390   0.133 -0.3340 -0.4984 -0.0330
   76SOL     OW  301   3.012   0.604   0.469 -0.0780  0.1296  0.3689
   76SOL    HW1  302   3.052   0.667   0.532 -2.0038 -1.9792  2.4786
   76SOL    HW2  303   3.081   0.554   0.425  1.5237  1.8125 -2.9025
   76SOL     MW  304   3.027   0.606   0.471 -0.1208  0.0734  0.2156
   77SOL     OW  305   0.833   0.531   0.447 -0.0719 -0.4643  0.4499
   77SOL    HW1  306   0.814   0.536   0.352 -1.1528  0.6305 -1.3505
   77SOL    HW2  307   0.759   0.477   0.479  1.9696 -1.4624 -0.9743
   77SOL     MW  308   0.821   0.525   0.439  0.0548 -0.4516  0.0245
   78SOL     OW  309   0.726   0.931   1.311 -0.4830 -0.3939  0.1269
   78SOL    HW1  310   0.762   0.993   1.247  0.3312 -0.8800  1.6119
   78SOL    HW2  311   0.653   0.892   1.270  3.3415 -1.1040  0.3982
   78SOL     MW  312   0.721   0.934   1.297  0.1290 -0.5517  0.3586
   79SOL     OW  313   1.934   1.686   0.581  0.1076  0.0056  0.0072
   79SOL    HW1  314   1.858   1.633   0.547  0.2684  2.3653  0.9831
   79SOL    HW2  315   1.919   1.666   0.678 -2.8244  4.0565  1.1341
   79SOL     MW  316   1.922   1.676   0.589 -0.2581  0.8514  0.2846
   80SOL     OW  317   0.070   0.940   0.344  0.0105  0.0883 -0.0844
   80SOL    HW1  318  -0.012   0.888   0.334 -1.2678 -2.2264  0.7357
   80SOL    HW2  319   0.140   0.876   0.357 -0.1200  1.9092  0.4691
   80SOL     MW  320   0.068   0.925   0.344 -0.1754  0.0231  0.0968
   81SOL     OW  321   1.923   1.918   0.232  0.0560 -0.1499  0.6202
   81SOL    HW1  322   1.878   1.836   0.251  1.4764 -1.5669 -0.2463
   81SOL    HW2  323   1.846   1.974   0.216  1.2863  1.3008 -1.9905
   81SOL     MW  324   1.907   1.914   0.232  0.4057 -0.1454  0.1614
   82SOL     OW  325   0.811   1.022   0.522 -0.1991 -0.1284  0.3176
   82SOL    HW1  326   0.806   1.022   0.421 -0.5871  1.1314  0.4119
   82SOL    HW2  327   0.761   0.941   0.546  0.4537  2.4874  0.7104
   82SOL     MW  328   0.804   1.011   0.512 -0.1641  0.3830  0.3819
   83SOL     OW  329   0.036   0.667   1.458  0.2815 -0.0142  0.3362
   83SOL    HW1  330   0.080   0.743   1.409  0.8211  0.4185  2.0555
   83SOL    HW2  331   0.113   0.627   1.493  0.9542 -0.1918 -1.1934
   83SOL     MW  332   0.052   0.672   1.456  0.4415  0.0195  0.3612
   84SOL     OW  333   0.115   0.283   0.967  0.6787 -0.0804  0.7841
   84SOL    HW1  334   0.018   0.310   0.955  0.5340 -0.2027  0.5302
   84SOL    HW2  335   0.115   0.201   1.020  1.9195  0.0852  0.9764
   84SOL     MW  336   0.102   0.276   0.972  0.8233 -0.0747  0.7760
   85SOL     OW  337   0.475   0.417   0.738 -0.2654  0.7779 -0.6221
   85SOL    HW1  338   0.411   0.453   0.680 -0.2220  0.6400 -2.3693
   85SOL    HW2  339   0.444   0.336   0.773 -1.1152  0.0226 -1.4758
   85SOL     MW  340   0.463   0.411   0.735 -0.3718  0.6601 -0.9652
   86SOL     OW  341   1.170   0.292   1.128 -0.3764 -0.4666 -0.2627
   86SOL    HW1  342   1.148   0.373   1.083 -1.1550 -1.7853  1.4015
   86SOL    HW2  343   1.198   0.308   1.216  0.3681  0.2389 -0.4007
   86SOL     MW  344   1.171   0.304   1.133 -0.3809 -0.5475 -0.0613
   87SOL     OW  345   1.222   1.467   1.359  0.5516  0.1049 -0.0889
   87SOL    HW1  346   1.254   1.515   1.283  0.7016  0.3231  0.0388
   87SOL    HW2  347   1.227   1.374   1.342 -0.4558 -0.3143  3.4622
   87SOL     MW  348   1.227   1.461   1.346  0.4385  0.0784  0.3965
   88SOL     OW  349   1.213   1.007   0.941 -0.3355  0.3126  0.5629
   88SOL    HW1  350   1.307   0.984   0.941  0.6249  2.2004  0.1912
   88SOL    HW2  351   1.201   1.075   1.003  0.5391 -1.2778 -0.7592
   88SOL     MW  352   1.224   1.013   0.950 -0.0934  0.3518  0.3394
   89SOL     OW  353   1.781   0.684   0.372 -0.2394  0.2274  0.0576
   89SOL    HW1  354   1.807   0.600   0.402 -0.8181 -0.8331  2.5735
   89SOL    HW2  355   1.848   0.718   0.312 -1.6342 -0.1811 -1.1177
   89SOL     MW  356   1.793   0.678   0.368 -0.4997  0.0336  0.2345
   90SOL     OW  357   0.704   1.136   2.721  0.2039  0.4191  0.3838
   90SOL    HW1  358   0.739   1.047   2.746  1.5061  0.9130  1.3391
   90SOL    HW2  359   0.737   1.201   2.782  3.2150  3.8293  2.1003
   90SOL     MW  360   0.713   1.133   2.732  0.7730  0.9342  0.7363
   91SOL     OW  361   2.174   0.665   0.448  0.1777 -0.2614 -0.3918
   91SOL    HW1  362   2.222   0.695   0.372 -2.7932 -0.0688 -1.3030
   91SOL    HW2  363   2.161   0.573   0.425 -0.8273  1.4407 -1.0926
   91SOL     MW  364   2.179   0.657   0.435 -0.3468 -0.0114 -0.6045
   92SOL     OW  365   1.692   0.891   0.534  0.9406  0.5421  0.0303
   92SOL    HW1  366   1.600   0.870   0.563 -0.4514 -0.9071 -0.8803
   92SOL    HW2  367   1.719   0.821   0.476 -1.3095  0.6965 -0.5669
   92SOL     MW  368   1.684   0.879   0.530  0.4601  0.3712 -0.1686
   93SOL     OW  369   0.925   0.254   0.419  0.1718 -0.0068 -0.0528
   93SOL    HW1  370   0.866   0.329   0.430 -1.2967 -2.0762  0.5194
   93SOL    HW2  371   0.972   0.270   0.339  0.8563 -1.2296  0.1016
   93SOL     MW  372   0.923   0.266   0.410  0.0683 -0.4412  0.0431
   94SOL     OW  373   1.787   1.478   1.623  0.2606 -0.3674 -0.1785
   94SOL    HW1  374   1.791   1.463   1.532  0.3295 -2.0082  1.8015
   94SOL    HW2  375   1.772   1.386   1.660  2.6137 -2.7140  1.1799
   94SOL     MW  376   1.786   1.464   1.616  0.5802 -0.8935  0.2620
   95SOL     OW  377   0.739   1.564   0.909 -0.3039 -0.2600 -0.3865
   95SOL    HW1  378   0.796   1.495   0.940  0.3691  0.1786  0.5987
   95SOL    HW2  379   0.648   1.543   0.923 -0.3784  0.3596  0.5302
   95SOL     MW  380   0.735   1.552   0.915 -0.2249 -0.1204 -0.1356
   96SOL     OW  381   1.268   1.851   1.681  0.5345  0.2259  0.3843
   96SOL    HW1  382   1.196   1.820   1.747 -1.2298 -0.5750  5.6574
   96SOL    HW2  383   1.277   1.768   1.634  0.4195  3.5764  3.6723
   96SOL     MW  384   1.260   1.836   1.683  0.2865  0.5623  1.5139
   97SOL     OW  385   1.261   1.440   0.735  0.4735 -0.3981 -0.3826
   97SOL    HW1  386   1.323   1.478   0.800  0.1064 -0.6249 -1.0402
   97SOL    HW2  387   1.173   1.475   0.750 -1.2017 -0.7499 -1.0059
   97SOL     MW  388   1.257   1.450   0.746  0.2041 -0.4744 -0.5516
   98SOL     OW  389   1.442   1.297   1.042 -0.0344 -0.0124  0.2556
   98SOL    HW1  390   1.445   1.375   1.094  0.6250  2.1702  1.1963
   98SOL    HW2  391   1.513   1.302   0.979  1.7352 -0.2363 -0.1895
   98SOL     MW  392   1.452   1.308   1.040  0.2861  0.2460  0.3210
   99SOL     OW  393   1.373   0.357   1.329 -0.1895 -0.2706  0.1558
   99SOL    HW1  394   1.453   0.384   1.281 -1.4613  0.6540  0.5871
   99SOL    HW2  395   1.406   0.357   1.422  1.6962 -0.4244 -1.4095
   99SOL     MW  396   1.388   0.360   1.335 -0.1085 -0.1689  0.0061
  100SOL     OW  397   1.017   1.181   1.408 -0.3727  0.3255  0.6431
  100SOL    HW1  398   1.029   1.224   1.494  0.3963  2.2029  1.0817
  100SOL    HW2  399   1.037   1.090   1.429  1.5836 -0.5058  3.2175
  100SOL     MW  400   1.021   1.175   1.422 -0.0131  0.4635  1.0407
  101SOL     OW  401   0.498   1.095   0.333 -0.2574  0.3542 -0.1095
  101SOL    HW1  402   0.507   1.000   0.336 -0.1169 -3.2141  0.6319
  101SOL    HW2  403   0.480   1.111   0.239 -2.7034  0.2133  1.9403
  101SOL     MW  404   0.496   1.085   0.321 -0.5616 -0.1352  0.2588
  102SOL     OW  405   2.916   0.629   1.052  0.4380  0.1512  0.4865
  102SOL    HW1  406   2.970   0.710   1.058 -2.2126 -1.4066  0.8287
  102SOL    HW2  407   2.934   0.584   1.136  1.8061  1.6516  1.9590
  102SOL     MW  408   2.926   0.634   1.064  0.2688  0.1437  0.7260
  103SOL     OW  409   1.782   0.289   1.824  1.0166 -0.9944  0.2142
  103SOL    HW1  410   1.708   0.226   1.804 -2.9628 -0.6780 -1.8141
  103SOL    HW2  411   1.788   0.304   1.927  0.1763  0.1969 -0.9027
  103SOL     MW  412   1.773   0.282   1.835  0.3807 -0.7955 -0.2008
  104SOL     OW  413   0.067   1.681   1.499  0.4450 -1.1818 -0.1061
  104SOL    HW1  414   0.008   1.667   1.563  0.6966  2.3882 -0.9396
  104SOL    HW2  415   0.042   1.624   1.432  1.2473  2.0429  1.6562
  104SOL     MW  416   0.056   1.672   1.499  0.5841 -0.2853  0.0165
  105SOL     OW  417   0.017   1.190   0.438 -0.3610  0.0959 -0.5637
  105SOL    HW1  418   0.041   1.094   0.410 -0.7371 -1.3340  0.1647
  105SOL    HW2  419   0.106   1.232   0.454  2.2649  2.6191  0.3568
  105SOL     MW  420   0.032   1.183   0.436 -0.0642  0.2402 -0.3462
  106SOL     OW  421   0.852   0.384   1.014  0.0268 -0.5706  0.0116
  106SOL    HW1  422   0.802   0.439   0.949  0.2180 -0.2670 -0.0391
  106SOL    HW2  423   0.879   0.306   0.956 -1.6998  0.2882 -1.2012
  106SOL     MW  424   0.849   0.381   0.998 -0.1758 -0.4173 -0.1551
  107SOL     OW  425   0.779   2.151   2.976  0.0679 -0.1991  0.1337
  107SOL    HW1  426   0.720   2.126   2.903  1.0406  1.1970 -0.1051
  107SOL    HW2  427   0.778   2.088   3.051  3.6200 -1.7479 -0.1005
  107SOL     MW  428   0.771   2.140   2.976  0.6649 -0.2193  0.0713
  108SOL     OW  429   1.282   1.566   1.609  0.5611 -0.0271  0.4094
  108SOL    HW1  430   1.250   1.542   1.522 -1.3031 -3.8318 -2.0047
  108SOL    HW2  431   1.365   1.511   1.605  1.9633  0.3570  0.7535
  108SOL     MW  432   1.289   1.555   1.597  0.5001 -0.4784  0.1363
  109SOL     OW  433   1.960   0.773   0.174  0.1010 -0.4138 -0.1183
  109SOL    HW1  434   2.021   0.772   0.103 -0.9584  0.5403  0.6618
  109SOL    HW2  435   1.953   0.859   0.217 -0.5844  2.1354 -4.3501
  109SOL     MW  436   1.967   0.784   0.170 -0.1292  0.0484 -0.5737
  110SOL     OW  437   0.421   1.901   0.781 -0.3015 -0.1644 -1.0578
  110SOL    HW1  438   0.477   1.838   0.735 -0.8825  0.2240 -1.2787
  110SOL    HW2  439   0.445   1.985   0.738 -1.0547  2.6247  0.1536
  110SOL     MW  440   0.432   1.903   0.770 -0.4775  0.2548 -0.9271
  111SOL     OW  441   0.852   0.928   1.556  0.6990  0.8896  0.0433
  111SOL    HW1  442   0.805   0.934   1.468  2.3732 -1.0633 -2.9814
  111SOL    HW2  443   0.848   0.830   1.571  0.0564  0.4527 -2.1261
  111SOL     MW  444   0.845   0.916   1.547  0.8351  0.5743 -0.6420
  112SOL     OW  445   1.337   1.095   1.610 -0.1066  0.0855  0.3635
  112SOL    HW1  446   1.261   1.154   1.611 -1.4946  0.3827  0.4396
  112SOL    HW2  447   1.306   1.007   1.638 -1.9526  0.4998  0.7356
  112SOL     MW  448   1.323   1.091   1.614 -0.5333  0.1794  0.4226
  113SOL     OW  449   1.298   0.050   1.734 -0.2489 -0.3690  0.0691
  113SOL    HW1  450   1.289   0.016   1.825  1.8434 -0.9143  2.3852
  113SOL    HW2  451   1.316  -0.020   1.676 -2.4127  2.2431 -1.5628
  113SOL     MW  452   1.299   0.037   1.738 -0.2583 -0.0963  0.1594
  114SOL     OW  453   0.267   2.860   1.929 -0.4090  0.0729 -0.1908
  114SOL    HW1  454   0.312   2.937   1.962 -1.3435  1.6065 -0.6616
  114SOL    HW2  455   0.275   2.866   1.831  1.7043  1.1918  1.6727
  114SOL     MW  456   0.274   2.871   1.920 -0.2535  0.4229 -0.0071
  115SOL     OW  457   0.473   0.829   1.133  0.2989  0.2849 -0.2862
  115SOL    HW1  458   0.487   0.730   1.125  0.2157 -1.7343 -1.7585
  115SOL    HW2  459   0.463   0.849   1.223 -4.0777  1.7096 -2.0732
  115SOL     MW  460   0.474   0.818   1.144 -0.2896  0.2064 -0.7163
  116SOL     OW  461   0.797   1.059   0.956 -0.5456  0.3473 -0.3789
  116SOL    HW1  462   0.823   1.100   0.872 -3.2210  0.6149 -1.9863
  116SOL    HW2  463   0.838   1.100   1.028 -0.4625 -0.8605  1.0787
  116SOL     MW  464   0.806   1.070   0.955 -0.8877  0.2232 -0.3986
  117SOL     OW  465   1.126   1.182   0.751  0.6486  0.3160  0.1536
  117SOL    HW1  466   1.159   1.130   0.824  0.8638  0.2869  2.0713
  117SOL    HW2  467   1.184   1.256   0.748  1.1967 -1.5192 -0.0709
  117SOL     MW  468   1.138   1.185   0.760  0.7493  0.0700  0.3770
  118SOL     OW  469   3.022   2.967   1.759  0.3119  0.5248 -0.2851
  118SOL    HW1  470   3.058   3.055   1.777  1.1508  1.5139  0.5324
  118SOL    HW2  471   2.927   2.976   1.745 -1.6782 -1.1707 -0.6754
  118SOL     MW  472   3.014   2.980   1.760  0.1600  0.4316 -0.2288
  119SOL     OW  473   0.477   1.436   1.238  0.0040  0.5930  0.3860
  119SOL    HW1  474   0.482   1.432   1.141 -1.2867  2.8031  0.3511
  119SOL    HW2  475   0.386   1.472   1.255 -2.2763  0.7900 -2.1222
  119SOL     MW  476   0.466   1.440   1.227 -0.4671  0.9106  0.0505
  120SOL     OW  477   0.264   0.713   0.982 -0.2319 -0.3028  0.2162
  120SOL    HW1  478   0.245   0.644   1.043 -1.1700  1.5015  0.8533
  120SOL    HW2  479   0.315   0.776   1.030  0.2558 -1.0381 -0.8812
  120SOL     MW  480   0.269   0.712   0.996 -0.2913 -0.1618  0.1554
  121SOL     OW  481   1.736   1.194   1.718  0.0242  0.1878 -0.0614
  121SOL    HW1  482   1.660   1.164   1.763 -2.8897 -0.9474  0.6337
  121SOL    HW2  483   1.751   1.123   1.656 -0.6489  0.9299  0.9314
  121SOL     MW  484   1.728   1.181   1.716 -0.4491  0.1360  0.1613
  122SOL     OW  485   0.110   0.538   0.788  0.2216 -0.0735  0.2643
  122SOL    HW1  486   0.170   0.528   0.713 -0.5768  0.0490 -0.4400
  122SOL    HW2  487   0.166   0.590   0.847 -1.6633 -1.8614 -0.6873
  122SOL     MW  488   0.126   0.543   0.786 -0.1324 -0.2932  0.0458
  123SOL     OW  489   1.852   1.118   0.533  0.4478  0.4494 -0.5357
  123SOL    HW1  490   1.800   1.036   0.549  1.7724 -3.0324  0.9278
  123SOL    HW2  491   1.868   1.159   0.620 -0.7459 -0.0064  2.0394
  123SOL     MW  492   1.847   1.113   0.546  0.4651 -0.0701 -0.0028
  124SOL     OW  493   0.685   0.530   0.853 -0.3577  0.0345 -0.4466
  124SOL    HW1  494   0.600   0.491   0.816  1.2102  0.5965 -0.6155
  124SOL    HW2  495   0.685   0.628   0.850  1.0145 -1.4111 -0.0160
  124SOL     MW  496   0.674   0.538   0.848  0.0302 -0.0821 -0.4121
  125SOL     OW  497   0.688   1.790   1.731  0.0401  0.2510  0.0070
  125SOL    HW1  498   0.652   1.704   1.694 -0.8866  1.4285  1.7676
  125SOL    HW2  499   0.635   1.863   1.707 -1.6718 -0.6554  3.0806
  125SOL     MW  500   0.676   1.788   1.723 -0.3080  0.2868  0.6448
  126SOL     OW  501   2.112   1.592   1.967 -0.5067 -0.5060 -0.5253
  126SOL    HW1  502   2.162   1.672   1.948 -0.5472 -0.9667 -0.3828
  126SOL    HW2  503   2.166   1.515   1.967 -0.1392  0.4907 -2.1512
  126SOL     MW  504   2.126   1.592   1.964 -0.4635 -0.4353 -0.7210
  127SOL     OW  505   0.721   0.780   1.850 -0.4234  0.1714 -0.3868
  127SOL    HW1  506   0.781   0.713   1.888  1.6094 -1.8337  0.6185
  127SOL    HW2  507   0.724   0.857   1.914  2.6792  0.4859  1.5962
  127SOL     MW  508   0.729   0.781   1.863  0.2542 -0.0516  0.0075
  128SOL     OW  509   1.774   0.728   2.936  0.2914  0.4847  0.6264
  128SOL    HW1  510   1.818   0.677   2.867 -1.0205 -0.8266 -0.3145
  128SOL    HW2  511   1.762   0.817   2.890  1.8292 -0.1717 -3.7646
  128SOL     MW  512   1.778   0.733   2.921  0.3212  0.2251 -0.0771
  129SOL     OW  513   1.632   0.955   0.216 -0.3851 -0.3406 -0.1900
  129SOL    HW1  514   1.606   0.869   0.202  0.5157  0.5913 -2.0050
  129SOL    HW2  515   1.655   0.963   0.306  1.8506 -0.0831  0.4977
  129SOL     MW  516   1.632   0.945   0.226  0.0288 -0.1837 -0.3387
  130SOL     OW  517   0.744   1.334   0.367  0.1045  0.1444 -0.0716
  130SOL    HW1  518   0.786   1.369   0.446  2.8587  4.9511  1.4752
  130SOL    HW2  519   0.788   1.368   0.281  1.1615 -0.8952 -2.5246
  130SOL     MW  520   0.755   1.343   0.366  0.6074  0.6414 -0.1911
  131SOL     OW  521   3.035   0.805   3.081  0.2320 -0.0465  0.1204
  131SOL    HW1  522   3.050   0.849   2.994 -0.4525  0.8162  0.4427
  131SOL    HW2  523   3.102   0.823   3.142  1.1843 -0.6527 -1.2551
  131SOL     MW  524   3.046   0.813   3.077  0.2673 -0.0126 -0.0186
  132SOL     OW  525   2.684   0.139   1.235 -0.0967 -0.0982 -0.3579
  132SOL    HW1  526   2.697   0.117   1.140  1.3742  0.9743  0.6753
  132SOL    HW2  527   2.590   0.131   1.263  1.0496  1.5321  0.6027
  132SOL     MW  528   2.674   0.135   1.226  0.2486  0.2584 -0.0949
  133SOL     OW  529   1.007   0.132   1.724 -0.4166 -0.3741 -0.2788
  133SOL    HW1  530   1.080   0.072   1.740  1.5370  1.2160  1.3647
  133SOL    HW2  531   0.975   0.162   1.812 -1.7727  0.2409  1.2723
  133SOL     MW  532   1.013   0.128   1.738 -0.3378 -0.0831  0.1427
  134SOL     OW  533   1.382   2.512   1.438 -0.2456  0.0441  0.4319
  134SOL    HW1  534   1.346   2.582   1.384  2.2428  1.5582 -0.4857
  134SOL    HW2  535   1.418   2.544   1.525 -1.4298  2.3773  1.7792
  134SOL     MW  536   1.382   2.525   1.442 -0.0735  0.5518  0.4886
  135SOL     OW  537   3.022   0.980   2.847 -0.0493 -0.3500  0.6370
  135SOL    HW1  538   3.082   1.041   2.883 -3.0932 -1.6731 -3.8961
  135SOL    HW2  539   2.940   1.031   2.848  2.3934  0.8873  1.6362
  135SOL     MW  540   3.019   0.995   2.852 -0.1286 -0.3614  0.1708
  136SOL     OW  541   0.193   2.045   0.873  0.1584 -0.1569 -0.1109
  136SOL    HW1  542   0.103   2.013   0.848 -0.6607 -1.5879  0.0586
  136SOL    HW2  543   0.257   1.989   0.826 -2.2727  0.5918 -0.1777
  136SOL     MW  544   0.190   2.033   0.864 -0.2705 -0.2470 -0.0974
  137SOL     OW  545   0.691   2.068   0.536  0.1046 -0.5840  0.2195
  137SOL    HW1  546   0.737   2.070   0.618  1.7756  2.4811  0.0402
  137SOL    HW2  547   0.600   2.067   0.544  3.7257  3.7757  0.3722
  137SOL     MW  548   0.685   2.068   0.547  0.8028  0.3956  0.2160
  138SOL     OW  549   0.557   0.574   1.108  0.1688 -0.0415  0.6822
  138SOL    HW1  550   0.474   0.530   1.090 -0.9295 -1.1973 -0.6235
  138SOL    HW2  551   0.608   0.577   1.022  1.7444  0.2895  0.8008
  138SOL     MW  552   0.553   0.568   1.094  0.2317 -0.1503  0.5256
  139SOL     OW  553   2.797   0.582   1.356  0.4765 -0.0450  0.2651
  139SOL    HW1  554   2.830   0.492   1.355  1.6111 -1.3594  0.4884
  139SOL    HW2  555   2.844   0.631   1.427 -3.0317  1.3818  0.3806
  139SOL     MW  556   2.807   0.577   1.365  0.1634 -0.0302  0.3098
  140SOL     OW  557   0.818   0.393   2.099  0.5247  0.0322  0.0218
  140SOL    HW1  558   0.891   0.334   2.096 -3.3429 -0.4028 -1.3247
  140SOL    HW2  559   0.822   0.420   2.195 -3.2169 -1.1502  0.6161
  140SOL     MW  560   0.828   0.389   2.111 -0.4792 -0.1812 -0.0774
  141SOL     OW  561   1.076   0.655   1.745 -0.5519  0.3140 -0.4510
  141SOL    HW1  562   1.115   0.579   1.702  1.1383  1.7512 -0.4688
  141SOL    HW2  563   1.154   0.717   1.754  0.1750  1.7298  1.0252
  141SOL     MW  564   1.091   0.653   1.740 -0.2330  0.6904 -0.2586
  142SOL     OW  565   0.862   1.190   0.726  0.6064  0.1818 -0.2455
  142SOL    HW1  566   0.864   1.114   0.661 -1.9890  1.2362 -1.3876
  142SOL    HW2  567   0.958   1.197   0.748  0.3614 -1.8064  0.6240
  142SOL     MW  568   0.875   1.181   0.720  0.2316  0.0586 -0.2815
  143SOL     OW  569   1.770   0.758   1.115  0.6922 -0.3499 -0.6657
  143SOL    HW1  570   1.824   0.745   1.037  0.8297  1.3460  0.1497
  143SOL    HW2  571   1.689   0.709   1.103  3.7197 -1.6656  0.3599
  143SOL     MW  572   1.766   0.750   1.103  1.1098 -0.2997 -0.4228
  144SOL     OW  573   0.220   1.161   1.584 -0.0171 -0.0607 -0.3168
  144SOL    HW1  574   0.284   1.229   1.560  1.2292  1.0156  2.1698
  144SOL    HW2  575   0.229   1.150   1.677 -1.4119  0.8280  0.3296
  144SOL     MW  576   0.230   1.169   1.593 -0.0367  0.1986  0.0965
  145SOL     OW  577   0.253   0.470   1.130 -0.4761  0.0976 -0.2789
  145SOL    HW1  578   0.310   0.418   1.178 -3.1390  3.6774 -1.6638
  145SOL    HW2  579   0.192   0.412   1.074 -0.6548  1.3503  2.4752
  145SOL     MW  580   0.253   0.456   1.129 -0.8510  0.7352 -0.0983
  146SOL     OW  581   0.827   1.928   1.329  0.6678 -0.0939  0.0860
  146SOL    HW1  582   0.869   1.926   1.242 -1.4796 -1.0375 -0.6803
  146SOL    HW2  583   0.739   1.920   1.302  1.4701  0.2222 -0.7403
  146SOL     MW  584   0.821   1.927   1.314  0.4903 -0.1767 -0.1241
  147SOL     OW  585   0.358   0.408   2.983  0.8823  0.3901 -0.3178
  147SOL    HW1  586   0.321   0.418   3.072  0.8012 -0.7468 -0.5945
  147SOL    HW2  587   0.319   0.475   2.926 -1.3277  1.3349 -0.1561
  147SOL     MW  588   0.348   0.418   2.987  0.5800  0.3648 -0.3330
  148SOL     OW  589   0.149   0.842   1.268  0.0187 -0.2738  0.1957
  148SOL    HW1  590   0.240   0.862   1.281 -2.8017 -0.9118 -2.0601
  148SOL    HW2  591   0.108   0.889   1.340 -0.2568 -0.5433 -1.6079
  148SOL     MW  592   0.155   0.851   1.279 -0.3898 -0.3936 -0.3399
  149SOL     OW  593   1.382   1.155   1.338 -0.1586 -0.5918 -0.2725
  149SOL    HW1  594   1.383   1.118   1.427  3.7517 -1.3346  0.1707
  149SOL    HW2  595   1.447   1.226   1.352 -2.6497 -0.2202  1.2721
  149SOL     MW  596   1.391   1.160   1.351  0.0286 -0.6407 -0.0102
  150SOL     OW  597   1.851   1.410   0.747 -0.1530 -0.0582 -0.0308
  150SOL    HW1  598   1.902   1.335   0.769 -0.4940  1.4457  1.7645
  150SOL    HW2  599   1.884   1.489   0.799 -1.8363 -0.2668 -0.5123
  150SOL     MW  600   1.862   1.411   0.757 -0.4201  0.1127  0.1426
  151SOL     OW  601   1.685   1.762   0.825  0.4428  0.1434 -0.4713
  151SOL    HW1  602   1.676   1.793   0.735  1.0850  0.3321 -0.0014
  151SOL    HW2  603   1.612   1.701   0.853 -2.3769 -1.2791  3.7882
  151SOL     MW  604   1.674   1.758   0.817  0.1555 -0.0194  0.1527
  152SOL     OW  605   0.743   1.427   1.499  0.2623 -0.0214 -0.2605
  152SOL    HW1  606   0.750   1.334   1.516 -2.4583  0.3780  4.4575
  152SOL    HW2  607   0.833   1.461   1.502  0.4334 -1.5688 -2.5497
  152SOL     MW  608   0.756   1.419   1.501 -0.0741 -0.1729  0.0600
  153SOL     OW  609   2.592   1.201   0.770  0.0966 -0.2522  0.5686
  153SOL    HW1  610   2.656   1.148   0.713 -0.5309  0.9138  1.0844
  153SOL    HW2  611   2.520   1.133   0.783 -0.2178 -2.3660 -1.3714
  153SOL     MW  612   2.591   1.185   0.764 -0.0277 -0.3773  0.3807
  154SOL     OW  613   0.309   1.812   1.722 -0.5312  0.1681 -0.7402
  154SOL    HW1  614   0.332   1.788   1.634 -1.9432  0.8363  0.8320
  154SOL    HW2  615   0.339   1.732   1.772 -0.0461 -2.0857  0.2875
  154SOL     MW  616   0.316   1.799   1.717 -0.6535 -0.0411 -0.3972
  155SOL     OW  617   1.228   0.724   0.258  0.4956 -0.2574 -0.3888
  155SOL    HW1  618   1.192   0.672   0.324  2.2447  1.8295  0.4373
  155SOL    HW2  619   1.182   0.815   0.271  0.0272 -1.0034  1.4971
  155SOL     MW  620   1.217   0.729   0.269  0.6646 -0.0805 -0.0310
  156SOL     OW  621   1.523   3.063   1.119 -0.3736  0.6418  0.6324
  156SOL    HW1  622   1.605   3.116   1.136  1.3148 -0.9951  2.2552
  156SOL    HW2  623   1.555   2.976   1.135  1.4493  0.4932  1.2060
  156SOL     MW  624   1.538   3.059   1.123  0.0896  0.4062  0.9222
  157SOL     OW  625   1.441   1.139   0.101 -0.2922  0.8676 -0.2507
  157SOL    HW1  626   1.493   1.062   0.143  0.7625 -2.0609  1.1957
  157SOL    HW2  627   1.507   1.206   0.076  1.0318  0.8333  0.2987
  157SOL     MW  628   1.456   1.137   0.103  0.0216  0.4767  0.0127
  158SOL     OW  629   0.524   1.658   2.196  0.6880  0.0293  0.4797
  158SOL    HW1  630   0.499   1.714   2.121  1.7394 -0.1826 -2.2883
  158SOL    HW2  631   0.449   1.666   2.251  3.1661  2.9563 -0.1177
  158SOL     MW  632   0.511   1.666   2.193  1.1537  0.3875  0.0356
  159SOL     OW  633   1.287   1.698   0.425 -0.0851 -0.4762 -0.2384
  159SOL    HW1  634   1.246   1.615   0.395 -0.0580 -0.9916 -0.9024
  159SOL    HW2  635   1.239   1.726   0.499 -0.2831 -1.0893 -0.3181
  159SOL     MW  636   1.275   1.690   0.431 -0.1077 -0.6251 -0.3366
  160SOL     OW  637   0.557   1.171   1.598  0.0323  0.1782 -0.5035
  160SOL    HW1  638   0.516   1.091   1.634 -1.5266 -0.2915  0.8063
  160SOL    HW2  639   0.635   1.180   1.646  0.1880 -2.6007 -0.1089
  160SOL     MW  640   0.562   1.161   1.609 -0.1528 -0.2504 -0.2786
  161SOL     OW  641   0.465   2.185   2.575  0.1003  0.4432  0.2973
  161SOL    HW1  642   0.375   2.215   2.551 -1.1933  1.6023 -2.2873
  161SOL    HW2  643   0.504   2.161   2.495 -2.5265 -0.8504 -1.2211
  161SOL     MW  644   0.458   2.186   2.561 -0.4170  0.4255 -0.2440
  162SOL     OW  645   1.068   1.787   1.858  0.0460  0.4403 -0.4051
  162SOL    HW1  646   1.064   1.874   1.896  0.8755 -1.1643 -1.7796
  162SOL    HW2  647   0.975   1.753   1.873  2.1361 -1.3893 -0.4150
  162SOL     MW  648   1.055   1.794   1.865  0.4312 -0.0128 -0.5877
  163SOL     OW  649   2.167   0.017   0.934  0.3524 -0.7541 -0.0973
  163SOL    HW1  650   2.145   0.025   0.841  3.3753 -0.8514  0.2045
  163SOL    HW2  651   2.101  -0.051   0.964 -1.8652  0.7896  0.5886
  163SOL     MW  652   2.155   0.009   0.925  0.4587 -0.5632  0.0330
  164SOL     OW  653   0.369   0.207   0.882 -0.2299 -0.4459  0.1678
  164SOL    HW1  654   0.285   0.240   0.896 -1.2889 -2.2658 -0.3831
  164SOL    HW2  655   0.359   0.131   0.824  0.1742  1.4019  0.1345
  164SOL     MW  656   0.357   0.201   0.876 -0.3163 -0.4422  0.0907
  165SOL     OW  657   1.347   1.251   0.351 -0.2298  0.2707 -0.6238
  165SOL    HW1  658   1.303   1.179   0.402  1.0616  1.3186  4.3534
  165SOL    HW2  659   1.371   1.220   0.261  1.7406  0.8188 -0.2799
  165SOL     MW  660   1.344   1.237   0.346  0.2006  0.4813  0.0782
  166SOL     OW  661   0.540   1.141   1.016  0.4799  0.3271  0.4310
  166SOL    HW1  662   0.537   1.139   1.114 -2.7195 -0.0595  2.6286
  166SOL    HW2  663   0.624   1.112   0.978  1.4453  0.6552 -1.4789
  166SOL     MW  664   0.550   1.137   1.024  0.1852  0.3194  0.4689
  167SOL     OW  665   0.764   1.013   0.260  0.4577 -0.1575 -0.1308
  167SOL    HW1  666   0.673   1.056   0.246  1.2614  0.2801  2.5230
  167SOL    HW2  667   0.816   1.082   0.220  0.5377 -3.7419  1.5548
  167SOL     MW  668   0.759   1.028   0.253  0.5743 -0.5727  0.4417
  168SOL     OW  669   1.695   1.667   2.998  0.9127  0.1616  0.2180
  168SOL    HW1  670   1.613   1.702   2.964 -1.5090 -1.5276  3.6045
  168SOL    HW2  671   1.689   1.572   2.984  1.3111 -4.3679  1.6601
  168SOL     MW  672   1.684   1.659   2.992  0.6458 -0.6589  0.8551
  169SOL     OW  673   0.397   0.895   1.388  0.3581  0.2204 -0.4495
  169SOL    HW1  674   0.404   0.870   1.485 -1.7842 -2.0807  0.4538
  169SOL    HW2  675   0.450   0.976   1.377  0.9072  1.0606  1.8578
  169SOL     MW  676   0.405   0.902   1.399  0.1479  0.0276 -0.0259
  170SOL     OW  677   1.002   1.478   1.500  0.2156  0.8000 -0.2411
  170SOL    HW1  678   0.997   1.573   1.529 -2.0297  0.3779  3.0541
  170SOL    HW2  679   1.080   1.475   1.437 -2.7983  1.4467 -1.2647
  170SOL     MW  680   1.012   1.490   1.495 -0.4783  0.8296  0.0586
  171SOL     OW  681   0.559   1.444   0.699 -0.2424  0.1668  0.1062
  171SOL    HW1  682   0.515   1.423   0.775 -1.7551  2.8242 -2.1046
  171SOL    HW2  683   0.542   1.362   0.650 -3.0846 -0.3388  1.0895
  171SOL     MW  684   0.551   1.431   0.703 -0.8170  0.4507 -0.0558
  172SOL     OW  685   0.845   0.340   1.287  0.3676  0.1568  0.0393
  172SOL    HW1  686   0.847   0.365   1.194  0.5097  1.2586 -0.5450
  172SOL    HW2  687   0.756   0.368   1.328  2.0098  2.6341 -0.0355
  172SOL     MW  688   0.834   0.347   1.280  0.6030  0.6290 -0.0477
  173SOL     OW  689   0.452   1.728   0.372  0.2279 -0.3762 -0.2746
  173SOL    HW1  690   0.493   1.650   0.336  3.5908  1.0211  0.8140
  173SOL    HW2  691   0.496   1.747   0.452 -2.0329 -0.4595 -1.5063
  173SOL     MW  692   0.463   1.720   0.378  0.3733 -0.2028 -0.2935
  174SOL     OW  693   1.850   1.002   1.570 -0.4473 -0.0032  0.0071
  174SOL    HW1  694   1.841   0.902   1.573 -3.1082 -1.6497  1.4335
  174SOL    HW2  695   1.831   1.022   1.479 -4.3659  0.7629  2.3112
  174SOL     MW  696   1.847   0.991   1.558 -1.3154 -0.1193  0.4993
  175SOL     OW  697   0.504   1.462   0.294  0.2925  0.7041 -0.6258
  175SOL    HW1  698   0.447   1.389   0.248 -0.0713 -1.3370  0.4098
  175SOL    HW2  699   0.579   1.411   0.319  0.5089  1.9810 -0.6284
  175SOL     MW  700   0.506   1.445   0.292  0.2731  0.6033 -0.4895
  176SOL     OW  701   0.191   1.463   1.214 -0.7565  0.4209 -0.1464
  176SOL    HW1  702   0.177   1.383   1.160 -0.3124 -0.6242 -2.4893
  176SOL    HW2  703   0.113   1.467   1.262 -0.2904  0.4211  2.2905
  176SOL     MW  704   0.179   1.453   1.213 -0.6364  0.2830 -0.1340
  177SOL     OW  705   0.607   0.434   1.355  0.2236  0.6362  0.4620
  177SOL    HW1  706   0.603   0.487   1.273  2.5181 -0.8133  3.1356
  177SOL    HW2  707   0.573   0.487   1.432  0.1753  0.2239  1.5993
  177SOL     MW  708   0.602   0.448   1.354  0.5199  0.3906  0.9648
  178SOL     OW  709   0.008   0.442   2.949 -0.2282  0.4176 -0.1095
  178SOL    HW1  710  -0.071   0.470   2.997 -1.5691 -0.5189 -1.6102
  178SOL    HW2  711  -0.025   0.456   2.863 -3.8059 -2.4856  1.3459
  178SOL     MW  712  -0.007   0.447   2.944 -0.8772 -0.0890 -0.1155
  179SOL     OW  713   1.566   1.321   1.391  0.6672  0.0888 -0.8087
  179SOL    HW1  714   1.540   1.327   1.487  0.4116  0.0182  0.1175
  179SOL    HW2  715   1.661   1.339   1.395 -0.9570  2.2200 -0.3585
  179SOL     MW  716   1.575   1.324   1.404  0.4192  0.3607 -0.6271
  180SOL     OW  717   3.068   0.184   0.441  0.4638  0.0808 -0.2434
  180SOL    HW1  718   2.988   0.187   0.386 -2.0648 -1.4027  0.0954
  180SOL    HW2  719   3.121   0.263   0.426  1.5163 -0.9702  1.0388
  180SOL     MW  720   3.064   0.195   0.432  0.2691 -0.2536 -0.0296
  181SOL     OW  721   1.113   1.365   3.086  0.1451 -0.5258  0.0978
  181SOL    HW1  722   1.183   1.420   3.129 -0.2521  5.2563  1.9564
  181SOL    HW2  723   1.156   1.289   3.042  1.4555 -1.7504  0.9705
  181SOL     MW  724   1.128   1.363   3.086  0.2656  0.0755  0.4582
  182SOL     OW  725   0.468   0.871   1.653 -0.5169 -0.0937  0.1157
  182SOL    HW1  726   0.385   0.853   1.697  1.3814  0.3459  2.7227
  182SOL    HW2  727   0.525   0.798   1.690 -1.5273 -2.0587 -0.2670
  182SOL     MW  728   0.465   0.859   1.664 -0.3998 -0.2950  0.4092
  183SOL     OW  729   1.571   1.525   1.180  0.1659 -0.7436 -0.3633
  183SOL    HW1  730   1.577   1.600   1.238  1.2903  0.3064 -0.5426
  183SOL    HW2  731   1.573   1.450   1.240 -1.0755  1.8811 -2.6082
  183SOL     MW  732   1.572   1.525   1.196  0.1505 -0.2588 -0.6831
  184SOL     OW  733   0.923   0.638   1.966  0.2771 -0.0262 -0.2114
  184SOL    HW1  734   0.987   0.643   1.894 -0.2151  1.2871  1.3653
  184SOL    HW2  735   0.904   0.547   1.972  1.5456  0.9449  2.7805
  184SOL     MW  736   0.929   0.627   1.957  0.3795  0.2752  0.3914
  185SOL     OW  737   1.262   1.031   1.897  0.0694 -0.0507 -0.3304
  185SOL    HW1  738   1.285   0.968   1.971 -0.1986  0.4317  1.7148
  185SOL    HW2  739   1.235   1.109   1.950  0.2780  2.4435  2.8505
  185SOL     MW  740   1.262   1.033   1.914  0.0616  0.3420  0.3591
  186SOL     OW  741   0.365   1.666   1.431  0.3096  0.5296 -0.3456
  186SOL    HW1  742   0.424   1.651   1.358 -0.0513 -0.4889  1.6925
  186SOL    HW2  743   0.276   1.641   1.403 -1.3145  0.1584  2.1440
  186SOL     MW  744   0.361   1.661   1.418  0.0477  0.3463  0.2518
  187SOL     OW  745   1.438   0.719   1.407  0.2822 -0.1618 -0.1425
  187SOL    HW1  746   1.451   0.701   1.499  1.0450  0.8393 -0.1308
  187SOL    HW2  747   1.348   0.709   1.384  2.2606 -3.0143 -0.6717
  187SOL     MW  748   1.428   0.715   1.416  0.6438 -0.4060 -0.2108
  188SOL     OW  749   1.915   1.156   0.853 -0.1927 -0.2667  0.8826
  188SOL    HW1  750   1.922   1.183   0.950  1.0648 -1.0893  0.2227
  188SOL    HW2  751   1.943   1.063   0.843 -0.5881 -0.4523 -1.6628
  188SOL     MW  752   1.920   1.147   0.864 -0.0790 -0.3997  0.4597
  189SOL     OW  753   0.682   0.795   0.860 -0.3708  0.7243  0.1086
  189SOL    HW1  754   0.598   0.845   0.859 -2.8061 -0.6781 -0.1977
  189SOL    HW2  755   0.735   0.856   0.907  1.7618 -1.9562 -0.6350
  189SOL     MW  756   0.678   0.810   0.866 -0.4107  0.1856 -0.0299
  190SOL     OW  757   1.848   0.272   2.074 -0.1528 -0.3391  0.2365
  190SOL    HW1  758   1.864   0.181   2.051  1.9884 -1.4125  3.0249
  190SOL    HW2  759   1.925   0.322   2.043 -0.5818 -0.4433 -0.1128
  190SOL     MW  760   1.860   0.267   2.067  0.0731 -0.4945  0.5583
  191SOL     OW  761   1.493   0.908   1.231  0.0750  0.0650  0.1657
  191SOL    HW1  762   1.445   0.983   1.264  3.0556  0.7059  0.1288
  191SOL    HW2  763   1.480   0.831   1.290  0.5417 -1.8696 -1.9968
  191SOL     MW  764   1.485   0.907   1.243  0.5299 -0.1057 -0.1245
  192SOL     OW  765   0.593   2.080   2.789  0.6615  0.2739  0.7242
  192SOL    HW1  766   0.552   2.111   2.703  0.3491  1.6374 -1.7661
  192SOL    HW2  767   0.575   1.987   2.785 -1.4142 -0.4390 -0.0861
  192SOL     MW  768   0.585   2.072   2.777  0.3464  0.3597  0.2887
  193SOL     OW  769   1.022   1.564   0.777 -1.0085  0.2674 -0.2434
  193SOL    HW1  770   0.979   1.563   0.860  1.8379  0.9347 -3.9914
  193SOL    HW2  771   0.961   1.520   0.714 -0.8430 -1.3326  0.0511
  193SOL     MW  772   1.008   1.558   0.780 -0.6111  0.1443 -0.6991
  194SOL     OW  773   0.480   1.399   0.951  1.0131  0.2877 -0.4836
  194SOL    HW1  774   0.481   1.303   0.967  1.0639 -0.6026  0.5930
  194SOL    HW2  775   0.392   1.424   0.916 -2.6670 -0.1931 -0.1540
  194SOL     MW  776   0.469   1.390   0.948  0.5342  0.1068 -0.2980
  195SOL     OW  777   1.259   1.124   2.993  0.0781 -0.1213 -0.3316
  195SOL    HW1  778   1.315   1.125   3.075 -0.5240 -1.8243 -2.9420
  195SOL    HW2  779   1.197   1.037   3.007 -0.4957 -1.3420 -1.5855
  195SOL     MW  780   1.258   1.113   3.006 -0.0770 -0.5070 -0.8415
  196SOL     OW  781   2.189   1.017   0.585  0.2971  0.0794 -0.1409
  196SOL    HW1  782   2.144   0.983   0.505 -0.9523 -2.7538 -1.3990
  196SOL    HW2  783   2.168   1.112   0.594  1.4410  1.2283  1.5790
  196SOL     MW  784   2.181   1.025   0.575  0.2832 -0.1428 -0.0799
  197SOL     OW  785   0.708   1.252   2.055 -0.0955 -0.6775  0.4087
  197SOL    HW1  786   0.680   1.158   2.064 -2.0274  0.1903 -0.8699
  197SOL    HW2  787   0.660   1.294   1.989  1.0260  0.3253 -1.9536
  197SOL     MW  788   0.698   1.245   2.047 -0.2024 -0.4307 -0.0717
  198SOL     OW  789   2.987   1.350   1.104 -0.3700 -0.2730  0.7194
  198SOL    HW1  790   2.949   1.439   1.089 -0.8672  2.3418 -2.0850
  198SOL    HW2  791   2.909   1.307   1.061  0.5793  2.3838 -0.1431
  198SOL     MW  792   2.972   1.356   1.096 -0.3103  0.4225  0.2356
  199SOL     OW  793   0.511   1.359   1.878  0.2250  0.2286  0.1870
  199SOL    HW1  794   0.443   1.302   1.841  1.1750  0.2943  1.9479
  199SOL    HW2  795   0.549   1.406   1.804 -1.0787 -1.9559  1.3566
  199SOL     MW  796   0.507   1.358   1.863  0.1783 -0.0510  0.5736
  200SOL     OW  797   1.857   3.056   1.285  0.1918 -0.4539 -0.2561
  200SOL    HW1  798   1.857   2.995   1.206 -0.5881  2.1616 -0.4470
  200SOL    HW2  799   1.778   3.118   1.287 -1.2833 -1.4252  1.2576
  200SOL     MW  800   1.847   3.056   1.275 -0.1057 -0.2370 -0.0816
  201SOL     OW  801   0.990   0.206   0.859  0.3715  0.0387  0.3350
  201SOL    HW1  802   0.968   0.152   0.779  0.6877 -1.3264 -0.0462
  201SOL    HW2  803   1.060   0.263   0.823  3.4189  1.3476 -0.7913
  201SOL     MW  804   0.996   0.206   0.844  0.8153  0.0313  0.1361
  202SOL     OW  805   1.521   1.564   0.911  0.1446 -0.2060 -0.2629
  202SOL    HW1  806   1.534   1.474   0.873 -1.9286 -2.9908 -1.5712
  202SOL    HW2  807   1.548   1.572   1.002 -0.2682  0.7978  0.1362
  202SOL     MW  808   1.526   1.553   0.918 -0.1834 -0.4410 -0.3829
  203SOL     OW  809   3.057   0.492   1.263 -0.2939 -0.2777  0.5469
  203SOL    HW1  810   3.149   0.491   1.229 -2.2322  0.8166  3.5126
  203SOL    HW2  811   3.073   0.538   1.347  0.4733 -2.4553  0.3989
  203SOL     MW  812   3.071   0.498   1.270 -0.4484 -0.4206  0.9187
  204SOL     OW  813   1.063   1.749   0.588 -0.2699  0.0812 -0.2937
  204SOL    HW1  814   1.042   1.690   0.660  1.0115  2.8724 -2.5825
  204SOL    HW2  815   0.991   1.727   0.528  1.9724 -2.0049 -3.1027
  204SOL     MW  816   1.051   1.738   0.589  0.1950  0.1742 -0.9663
  205SOL     OW  817   1.363   0.097   1.350 -0.1175 -0.5181  0.0843
  205SOL    HW1  818   1.335   0.069   1.266  0.9355 -0.6591  0.7447
  205SOL    HW2  819   1.355   0.191   1.345 -0.3402  0.4719 -3.3006
  205SOL     MW  820   1.358   0.106   1.338 -0.0080 -0.4061 -0.2752
  206SOL     OW  821   0.390   3.015   1.424  0.5658 -0.2239  0.3541
  206SOL    HW1  822   0.355   3.002   1.326  0.0546  3.0122 -2.0757
  206SOL    HW2  823   0.459   2.953   1.435 -1.5428  1.8556 -2.0446
  206SOL     MW  824   0.394   3.005   1.413  0.2201  0.4774 -0.2830
  207SOL     OW  825   0.913   1.503   0.186  0.0192  0.6144 -0.1369
  207SOL    HW1  826   0.916   1.603   0.187 -0.3889  2.4077 -0.2362
  207SOL    HW2  827   1.005   1.485   0.181 -0.7159  0.3828  2.0467
  207SOL     MW  828   0.925   1.514   0.185 -0.1317  0.8205  0.1381
  208SOL     OW  829   0.697   1.644   1.341  0.1184  0.1593  0.6925
  208SOL    HW1  830   0.779   1.686   1.359  0.5568 -1.0409 -0.4788
  208SOL    HW2  831   0.697   1.554   1.381 -0.3090  0.8395  1.4914
  208SOL     MW  832   0.708   1.638   1.349  0.1198  0.0907  0.6434
  209SOL     OW  833   1.568   0.522   2.983 -0.6828 -0.4911  0.2328
  209SOL    HW1  834   1.604   0.606   2.962  0.3809 -2.4462  2.6279
  209SOL    HW2  835   1.629   0.459   2.948 -0.4068 -2.5474  1.5468
  209SOL     MW  836   1.581   0.525   2.975 -0.5060 -1.0204  0.7221
  210SOL     OW  837   1.597   1.322   0.782  0.0370 -0.2882 -0.1363
  210SOL    HW1  838   1.691   1.357   0.777  1.2759 -0.9236 -0.6957
  210SOL    HW2  839   1.558   1.338   0.693  1.1851  1.4663  1.1827
  210SOL     MW  840   1.604   1.329   0.770  0.3520 -0.1405 -0.0361
  211SOL     OW  841   1.655   0.370   0.973 -0.3896 -0.0409 -0.1451
  211SOL    HW1  842   1.637   0.387   0.882 -1.2170  0.4253 -1.4969
  211SOL    HW2  843   1.752   0.380   0.975 -0.9407 -2.6371  0.9471
  211SOL     MW  844   1.666   0.373   0.962 -0.5715 -0.3220 -0.1793
  212SOL     OW  845   0.229   1.055   0.111  0.3387 -0.5101 -0.1224
  212SOL    HW1  846   0.167   1.037   0.183 -1.0369 -0.4725  0.3466
  212SOL    HW2  847   0.241   0.973   0.065 -0.7635  0.3716  3.3833
  212SOL     MW  848   0.222   1.042   0.114  0.0118 -0.3888  0.4020
  213SOL     OW  849   0.502   1.745   3.034  0.6166 -0.1902 -0.2205
  213SOL    HW1  850   0.530   1.789   3.113 -1.1196 -1.0788  3.3238
  213SOL    HW2  851   0.539   1.798   2.958 -0.2943  0.1915 -1.2886
  213SOL     MW  852   0.511   1.758   3.034  0.2674 -0.2570  0.1062
  214SOL     OW  853   0.554   0.276   2.262 -0.1294  0.0667 -0.0293
  214SOL    HW1  854   0.492   0.354   2.274 -0.0422  1.2208 -1.3099
  214SOL    HW2  855   0.594   0.292   2.178  1.9366  1.4133 -0.5816
  214SOL     MW  856   0.551   0.289   2.253  0.1547  0.3967 -0.2711
  215SOL     OW  857   0.530   0.686   2.655 -0.1871  0.1174 -0.3284
  215SOL    HW1  858   0.554   0.657   2.569 -0.2421 -0.4781 -0.4097
  215SOL    HW2  859   0.456   0.638   2.697 -1.0878  0.7165 -1.7000
  215SOL     MW  860   0.524   0.676   2.649 -0.3132  0.1179 -0.5201
  216SOL     OW  861   2.899   3.068   2.633 -0.1045  0.2341 -0.1197
  216SOL    HW1  862   2.858   3.059   2.727 -3.4375 -0.2168 -0.3810
  216SOL    HW2  863   2.921   3.162   2.636 -0.4917 -2.8954 -0.4663
  216SOL     MW  864   2.896   3.079   2.646 -0.5954 -0.2383 -0.1999
  217SOL     OW  865   0.946   1.121   0.053 -0.2354 -0.6302 -0.0515
  217SOL    HW1  866   0.991   1.045   0.007  2.4550 -0.7081  0.6105
  217SOL    HW2  867   1.012   1.189   0.048 -0.0607 -0.5325  2.4169
  217SOL     MW  868   0.961   1.120   0.047  0.1426 -0.6276  0.3615
  218SOL     OW  869   0.957   1.347   2.509 -0.2430 -0.3651  0.2617
  218SOL    HW1  870   0.951   1.274   2.569  0.9637 -0.7951 -1.5940
  218SOL    HW2  871   1.010   1.410   2.557 -1.1320 -1.6403  1.0327
  218SOL     MW  872   0.963   1.346   2.524 -0.2011 -0.5901  0.1186
  219SOL     OW  873   1.103   0.470   2.645  0.0893 -0.3162  0.0553
  219SOL    HW1  874   1.158   0.529   2.692 -1.1437  1.4580 -1.2426
  219SOL    HW2  875   1.040   0.514   2.589 -2.6986  0.3155  1.1061
  219SOL     MW  876   1.102   0.484   2.644 -0.4412  0.0013  0.0227
  220SOL     OW  877   1.763   0.493   2.240  0.0576  0.6023  0.0160
  220SOL    HW1  878   1.671   0.514   2.208 -0.6553  4.0535 -0.5573
  220SOL    HW2  879   1.790   0.408   2.193 -0.2571 -1.0459 -1.0905
  220SOL     MW  880   1.754   0.485   2.229 -0.0780  0.8402 -0.2056
  221SOL     OW  881   0.388   1.357   2.956  0.4971  0.1108 -0.4601
  221SOL    HW1  882   0.443   1.283   2.929 -0.5556  4.3282 -0.7320
  221SOL    HW2  883   0.423   1.423   2.896 -0.2308 -0.5227  0.4714
  221SOL     MW  884   0.400   1.356   2.945  0.2622  0.5837 -0.3731
  222SOL     OW  885   0.393   0.949   2.664 -0.0850 -0.2633 -0.4804
  222SOL    HW1  886   0.360   0.983   2.574 -1.4754 -0.0361  1.4284
  222SOL    HW2  887   0.453   0.885   2.637 -0.2018  1.3257 -2.4905
  222SOL     MW  888   0.396   0.945   2.648 -0.2839 -0.0237 -0.4938
  223SOL     OW  889   0.008   2.036   2.564 -0.1293 -0.0559 -0.3299
  223SOL    HW1  890   0.063   1.974   2.620 -1.6767 -1.5355  0.4765
  223SOL    HW2  891   0.067   2.113   2.551  0.0980  0.8544 -1.2569
  223SOL     MW  892   0.023   2.038   2.569 -0.3035 -0.1310 -0.3458
  224SOL     OW  893   1.528   0.811   2.614 -0.4839  0.1106  0.4786
  224SOL    HW1  894   1.486   0.857   2.689 -1.0096 -1.4708 -0.5431
  224SOL    HW2  895   1.559   0.876   2.557  0.9953  1.2277  0.2469
  224SOL     MW  896   1.526   0.825   2.617 -0.3581  0.0493  0.3132
  225SOL     OW  897   2.949   1.452   2.309 -0.4802 -0.6947 -0.1949
  225SOL    HW1  898   3.019   1.519   2.278 -0.7353  1.5181  0.7346
  225SOL    HW2  899   2.882   1.501   2.355 -1.2088  1.7630 -1.0169
  225SOL     MW  900   2.949   1.467   2.311 -0.6100 -0.0785 -0.1807
  226SOL     OW  901   0.474   1.452   2.692  0.2660  0.0402  0.3948
  226SOL    HW1  902   0.572   1.464   2.680 -1.2303 -0.8514 -3.0689
  226SOL    HW2  903   0.433   1.539   2.692  0.4684 -0.6253  1.4180
  226SOL     MW  904   0.482   1.465   2.690  0.0953 -0.1652  0.0728
  227SOL     OW  905   0.468   1.102   2.873  0.3206  0.1260 -0.6257
  227SOL    HW1  906   0.549   1.116   2.825  1.3877  1.6101 -1.9947
  227SOL    HW2  907   0.422   1.044   2.813 -2.1372 -1.6185  1.7646
  227SOL     MW  908   0.473   1.096   2.859  0.1371  0.0917 -0.4909
  228SOL     OW  909   0.705   0.958   2.061 -0.0657  0.0535 -0.2643
  228SOL    HW1  910   0.801   0.976   2.051 -1.7109  0.3426  0.3551
  228SOL    HW2  911   0.708   0.899   2.145  0.1017  0.0498  1.7923
  228SOL     MW  912   0.718   0.952   2.071 -0.2606  0.0912  0.0888
  229SOL     OW  913   0.181   0.586   0.032  0.1961  0.3694  0.0347
  229SOL    HW1  914   0.125   0.565  -0.047 -1.5424  2.2955  0.3688
  229SOL    HW2  915   0.187   0.501   0.077  1.8047  0.8697  0.8264
  229SOL     MW  916   0.175   0.572   0.027  0.1790  0.6895  0.1833
  230SOL     OW  917   1.748   1.369   2.032 -0.0681 -0.1055 -0.1788
  230SOL    HW1  918   1.699   1.344   2.111  0.5025 -0.9644 -1.2021
  230SOL    HW2  919   1.779   1.280   2.003 -1.6797 -1.3790 -0.4040
  230SOL     MW  920   1.746   1.354   2.038 -0.2055 -0.3868 -0.3436
  231SOL     OW  921   2.743   1.286   2.194 -0.4650 -0.7730  0.3626
  231SOL    HW1  922   2.800   1.341   2.242 -0.1143  0.7993 -1.0077
  231SOL    HW2  923   2.704   1.330   2.120  3.6918 -3.1884  1.4984
  231SOL     MW  924   2.745   1.299   2.191  0.1297 -0.8842  0.3317
  232SOL     OW  925   2.286   0.828   2.046  0.3176 -0.3471 -0.3928
  232SOL    HW1  926   2.198   0.838   2.004  2.5547  0.2830 -0.1752
  232SOL    HW2  927   2.276   0.819   2.145 -0.8459 -2.2000 -0.1906
  232SOL     MW  928   2.273   0.828   2.053  0.4592 -0.5085 -0.3374
  233SOL     OW  929   2.068   0.466   1.973  0.0094  0.1511  1.0829
  233SOL    HW1  930   2.129   0.390   1.966  2.3142 -0.5759  2.2649
  233SOL    HW2  931   2.110   0.500   2.055  0.0239  1.2082  2.2700
  233SOL     MW  932   2.081   0.460   1.983  0.3154  0.1947  1.3955
  234SOL     OW  933   0.278   1.058   2.439  0.3400  0.7500 -0.0524
  234SOL    HW1  934   0.185   1.080   2.416 -1.5905 -0.9475 -1.4588
  234SOL    HW2  935   0.314   1.145   2.454 -1.6851 -0.0857 -1.1116
  234SOL     MW  936   0.271   1.072   2.438 -0.1819  0.4158 -0.3777
  235SOL     OW  937   1.129   3.052   2.714 -0.4869  0.6927 -0.0416
  235SOL    HW1  938   1.152   2.996   2.789 -1.6953  2.0295 -0.4119
  235SOL    HW2  939   1.117   3.138   2.756 -0.5862 -1.1962  1.9338
  235SOL     MW  940   1.131   3.056   2.730 -0.6594  0.6199  0.1701
  236SOL     OW  941   2.917   0.557   0.011  0.2325  0.3309  0.2254
  236SOL    HW1  942   2.831   0.594   0.036 -1.5365  1.8518  0.9766
  236SOL    HW2  943   2.973   0.631   0.023 -1.9872 -0.2427  0.3416
  236SOL     MW  944   2.913   0.572   0.016 -0.2938  0.4559  0.3398
  237SOL     OW  945   2.010   1.102   2.194  0.3930 -0.3824 -0.5652
  237SOL    HW1  946   1.954   1.155   2.130 -0.4683  1.0652  1.2655
  237SOL    HW2  947   2.022   1.022   2.143 -1.5768 -1.0179  0.1539
  237SOL     MW  948   2.004   1.098   2.179  0.0195 -0.2753 -0.2288
  238SOL     OW  949   1.063   1.810   3.003  0.1314  0.0696 -0.6275
  238SOL    HW1  950   1.035   1.728   2.966 -1.1088 -0.2736 -1.0821
  238SOL    HW2  951   1.150   1.782   3.032 -2.5222  1.0231 -0.0197
  238SOL     MW  952   1.071   1.795   3.002 -0.3823  0.1501 -0.6073
  239SOL     OW  953   1.243   1.355   2.356  0.1068  0.2658  0.0708
  239SOL    HW1  954   1.189   1.387   2.424  0.4212  0.7180 -0.4492
  239SOL    HW2  955   1.279   1.275   2.403  0.5057 -1.7767  1.6342
  239SOL     MW  956   1.241   1.349   2.371  0.2009  0.0560  0.2085
  240SOL     OW  957   0.723   0.803   2.287  0.3682  0.6361 -0.2221
  240SOL    HW1  958   0.729   0.854   2.365 -2.3450 -1.8848 -0.6720
  240SOL    HW2  959   0.807   0.759   2.276 -1.0815 -0.0971 -1.9571
  240SOL     MW  960   0.735   0.804   2.296 -0.1810  0.2067 -0.5104
  241SOL     OW  961   0.641   0.370   3.094  0.1204  0.0868  0.1296
  241SOL    HW1  962   0.685   0.450   3.126 -0.1170 -0.6580  0.6489
  241SOL    HW2  963   0.553   0.394   3.072 -0.0529  1.6761 -0.9983
  241SOL     MW  964   0.635   0.384   3.095  0.0662  0.1982  0.0493
  242SOL     OW  965   1.503   1.680   2.344  0.4217 -0.3427 -0.2041
  242SOL    HW1  966   1.475   1.773   2.354 -0.0604  4.1352  0.6647
  242SOL    HW2  967   1.452   1.649   2.274 -0.2337 -1.4304  1.3431
  242SOL     MW  968   1.493   1.689   2.336  0.2716  0.1046  0.1147
  243SOL     OW  969   1.038   0.241   2.487 -0.3542 -0.1841  0.0538
  243SOL    HW1  970   1.110   0.233   2.418  0.7223  0.1269 -0.8442
  243SOL    HW2  971   1.064   0.308   2.555  0.7233  0.6249  0.6760
  243SOL     MW  972   1.051   0.249   2.487 -0.0700 -0.0363  0.0174
  244SOL     OW  973   0.262   0.765   2.389  0.5700 -0.0123  0.6251
  244SOL    HW1  974   0.279   0.860   2.383  0.3467  1.8798 -0.0781
  244SOL    HW2  975   0.344   0.723   2.382  0.8245  1.0570  1.2128
  244SOL     MW  976   0.275   0.772   2.388  0.5741  0.3784  0.6099
  245SOL     OW  977   1.279   0.226   2.320  0.1849  0.4231  0.1039
  245SOL    HW1  978   1.323   0.155   2.362 -0.1685 -0.5824 -0.7518
  245SOL    HW2  979   1.333   0.293   2.367 -1.3153 -2.8009 -0.1320
  245SOL     MW  980   1.292   0.225   2.332 -0.0597 -0.1349 -0.0401
  246SOL     OW  981   1.204   1.188   2.142  0.1239  0.1157 -0.0813
  246SOL    HW1  982   1.179   1.104   2.188  0.7199  1.1876 -0.8116
  246SOL    HW2  983   1.193   1.241   2.214 -0.7420 -1.0978  2.9062
  246SOL     MW  984   1.199   1.184   2.157  0.0883  0.0971  0.2165
  247SOL     OW  985   0.745   0.563   0.177 -0.2657 -0.1965  0.4517
  247SOL    HW1  986   0.691   0.624   0.133  0.9361 -3.4422  1.1920
  247SOL    HW2  987   0.835   0.578   0.142  1.1697  0.7023  1.0146
  247SOL     MW  988   0.750   0.573   0.167  0.0823 -0.5062  0.6237
  248SOL     OW  989   0.427   1.288   2.473 -0.7922  0.7793 -0.0981
  248SOL    HW1  990   0.442   1.334   2.390 -1.2694 -0.8992 -1.3612
  248SOL    HW2  991   0.473   1.339   2.540 -2.3711  2.1882  1.6080
  248SOL     MW  992   0.435   1.301   2.471 -1.0635  0.7438 -0.0396
  249SOL     OW  993   0.163   1.882   2.717  0.4849  0.4087  0.5639
  249SOL    HW1  994   0.116   1.811   2.666 -0.9497  0.1691  0.1440
  249SOL    HW2  995   0.175   1.839   2.811  0.3749 -1.8980  1.1804
  249SOL     MW  996   0.158   1.867   2.723  0.2811  0.0728  0.5899
  250SOL     OW  997   2.192   0.911   2.319 -0.0317  0.5360 -0.5557
  250SOL    HW1  998   2.245   0.838   2.365 -0.4218 -0.7760  0.3292
  250SOL    HW2  999   2.223   0.997   2.349 -0.8657 -0.6702 -0.8202
  250SOL     MW 1000   2.203   0.912   2.329 -0.1932  0.2038 -0.4738
  251SOL     OW 1001   0.153   0.861   1.979  0.5369  0.1699 -0.9298
  251SOL    HW1 1002   0.082   0.804   1.997  1.4529 -2.1752 -0.4183
  251SOL    HW2 1003   0.189   0.846   1.888 -1.5062  0.4529 -2.1759
  251SOL     MW 1004   0.148   0.852   1.969  0.3882 -0.1022 -1.0268
  252SOL     OW 1005   1.718   0.974   2.850  0.2488  0.1337 -0.0901
  252SOL    HW1 1006   1.745   1.015   2.940 -1.5434  0.4729  0.5492
  252SOL    HW2 1007   1.791   0.999   2.789  1.0387 -0.9332 -0.2320
  252SOL     MW 1008   1.731   0.983   2.854  0.1166  0.0377 -0.0245
  253SOL     OW 1009   1.247   1.782   2.548  0.3168 -0.1903  0.0405
  253SOL    HW1 1010   1.205   1.791   2.462 -3.3042 -1.6036  3.5092
  253SOL    HW2 1011   1.178   1.827   2.601 -0.4832  1.1591 -3.1472
  253SOL     MW 1012   1.233   1.789   2.544 -0.2665 -0.1987  0.0776
  254SOL     OW 1013   1.057   1.001   2.271  0.0521  0.3274 -0.3787
  254SOL    HW1 1014   1.037   0.920   2.225 -1.2667 -0.3667  2.0927
  254SOL    HW2 1015   0.979   1.052   2.269  1.8336  1.1062  0.2394
  254SOL     MW 1016   1.044   0.997   2.265  0.1131  0.3386  0.0289
  255SOL     OW 1017   0.754   2.571   2.163 -0.0531  0.1731 -0.1806
  255SOL    HW1 1018   0.685   2.507   2.186 -1.9318 -1.0358  0.2702
  255SOL    HW2 1019   0.838   2.546   2.190 -2.7113 -0.7187 -0.5769
  255SOL     MW 1020   0.756   2.559   2.170 -0.6517 -0.1040 -0.1734
  256SOL     OW 1021   1.292   2.718   2.900  0.5582 -0.8441  0.6814
  256SOL    HW1 1022   1.309   2.644   2.851 -0.4995 -1.5108  0.5335
  256SOL    HW2 1023   1.375   2.764   2.877  1.0848 -3.1554 -2.3986
  256SOL     MW 1024   1.305   2.714   2.891  0.4882 -1.2370  0.2555
  257SOL     OW 1025   0.122   1.931   0.070  0.2206  0.3143 -0.3015
  257SOL    HW1 1026   0.161   1.902   0.150  1.2461 -2.3357 -0.5987
  257SOL    HW2 1027   0.170   1.878   0.004  1.3448  1.1127  0.4762
  257SOL     MW 1028   0.133   1.920   0.072  0.5042  0.0700 -0.2381
  258SOL     OW 1029   0.708   1.036   2.467  0.4672 -0.4584 -0.1215
  258SOL    HW1 1030   0.765   1.100   2.411  1.8038  2.4337  0.0840
  258SOL    HW2 1031   0.697   1.094   2.540  1.3281 -1.2790 -1.7728
  258SOL     MW 1032   0.714   1.052   2.469  0.7571 -0.1851 -0.3122
  259SOL     OW 1033   0.803   0.399   2.373  1.0661 -0.9154 -0.0368
  259SOL    HW1 1034   0.704   0.391   2.368  1.1172 -2.3925 -2.5283
  259SOL    HW2 1035   0.833   0.321   2.419  0.5745 -1.2310 -0.7203
  259SOL     MW 1036   0.794   0.387   2.378  1.0080 -1.1519 -0.4557
  260SOL     OW 1037   0.483   0.141   1.595  0.0899 -0.1605 -0.2985
  260SOL    HW1 1038   0.431   0.080   1.541 -3.1599 -2.2000  2.1514
  260SOL    HW2 1039   0.572   0.099   1.604 -1.4436 -0.7521 -1.5178
  260SOL     MW 1040   0.488   0.127   1.589 -0.5412 -0.5077 -0.1362
  261SOL     OW 1041   1.306   0.775   2.011 -0.6570 -0.1840  0.1809
  261SOL    HW1 1042   1.305   0.763   2.106 -1.9632  0.9540 -0.5435
  261SOL    HW2 1043   1.322   0.683   1.980  0.4547  1.3220 -0.4842
  261SOL     MW 1044   1.308   0.762   2.019 -0.6826  0.1648 -0.0024
  262SOL     OW 1045   1.033   0.340   0.174 -0.2758  0.1161 -0.1364
  262SOL    HW1 1046   1.123   0.354   0.141 -1.6365  0.1314 -0.2188
  262SOL    HW2 1047   0.997   0.277   0.108  1.3011 -2.0877 -0.8198
  262SOL     MW 1048   1.040   0.333   0.161 -0.2473 -0.1727 -0.2375
  263SOL     OW 1049   0.421   0.009   2.523 -0.4293 -0.0283 -0.7582
  263SOL    HW1 1050   0.350   0.071   2.495 -1.9122 -0.2393  1.2822
  263SOL    HW2 1051   0.472  -0.014   2.441  2.1786 -1.0115  0.7930
  263SOL     MW 1052   0.418   0.014   2.508 -0.2809 -0.1859 -0.2843
  264SOL     OW 1053   1.481   1.328   1.890 -0.3820  0.2455 -0.4630
  264SOL    HW1 1054   1.435   1.282   1.955 -0.3646  1.4118 -1.1373
  264SOL    HW2 1055   1.565   1.344   1.925 -2.0138  2.7782  0.4538
  264SOL     MW 1056   1.486   1.324   1.903 -0.5950  0.7336 -0.4310
  265SOL     OW 1057   0.684   2.812   2.295  0.2119 -0.2331  0.0967
  265SOL    HW1 1058   0.711   2.735   2.237  1.0720 -0.5763 -0.1491
  265SOL    HW2 1059   0.702   2.789   2.385 -0.9185 -0.8987 -1.4142
  265SOL     MW 1060   0.690   2.799   2.299  0.1762 -0.3662 -0.1351
  266SOL     OW 1061   0.964   0.719   2.214 -0.6798 -0.3067 -0.1876
  266SOL    HW1 1062   0.956   0.701   2.118 -0.1725  0.0797  1.4747
  266SOL    HW2 1063   1.055   0.696   2.233  2.3901  2.2234 -1.7809
  266SOL     MW 1064   0.975   0.714   2.204 -0.2078  0.0781 -0.1785
  267SOL     OW 1065   1.428   1.750   2.790  0.4514  0.4548 -0.0400
  267SOL    HW1 1066   1.500   1.704   2.741  1.2303  1.4074 -0.0715
  267SOL    HW2 1067   1.371   1.775   2.718 -2.4780  1.3904 -0.1065
  267SOL     MW 1068   1.430   1.747   2.774  0.1677  0.7039 -0.0529
  268SOL     OW 1069   0.193   0.832   1.712 -0.4127 -0.1717  0.6853
  268SOL    HW1 1070   0.136   0.864   1.643  1.1496 -0.7493  1.5585
  268SOL    HW2 1071   0.220   0.743   1.693  1.4378  2.8431  2.3353
  268SOL     MW 1072   0.189   0.824   1.701  0.0376  0.1498  1.0182
  269SOL     OW 1073   1.431   1.948   2.351 -0.2434 -0.0093  0.3147
  269SOL    HW1 1074   1.477   2.034   2.353  1.1827  2.2383  1.2177
  269SOL    HW2 1075   1.360   1.972   2.412  2.3522  0.3276 -1.0917
  269SOL     MW 1076   1.428   1.962   2.359  0.2873  0.3317  0.2483
  270SOL     OW 1077   1.115   0.384   1.626 -0.6666  0.6739  0.0764
  270SOL    HW1 1078   1.060   0.312   1.649  1.5897  0.5802 -1.4779
  270SOL    HW2 1079   1.203   0.350   1.619  0.5227 -1.0887  2.3339
  270SOL     MW 1080   1.119   0.370   1.628 -0.2120  0.4290  0.1692
  271SOL     OW 1081   0.885   0.008   2.535 -0.2825 -0.1227  0.1057
  271SOL    HW1 1082   0.941  -0.026   2.604  2.6073 -0.1665  0.7829
  271SOL    HW2 1083   0.926   0.103   2.525  1.0088  0.3910 -0.8758
  271SOL     MW 1084   0.898   0.016   2.543  0.2691 -0.0607  0.0655
  272SOL     OW 1085   1.475   2.880   2.811  0.3219  0.1438  1.0306
  272SOL    HW1 1086   1.441   2.902   2.724 -3.2485 -1.8137 -0.2608
  272SOL    HW2 1087   1.499   2.961   2.850 -0.5172 -1.7190 -1.4816
  272SOL     MW 1088   1.474   2.894   2.805 -0.2599 -0.3603  0.5287
  273SOL     OW 1089   1.441   0.986   2.841  0.0491  0.5898 -0.3467
  273SOL    HW1 1090   1.534   1.002   2.856  0.8805  0.2973 -0.1507
  273SOL    HW2 1091   1.390   1.046   2.894 -1.0920 -1.6799 -0.0684
  273SOL     MW 1092   1.447   0.996   2.850  0.0083  0.2517 -0.2841
  274SOL     OW 1093   1.483   0.730   0.129 -0.1219  0.2104 -0.2105
  274SOL    HW1 1094   1.514   0.640   0.112 -0.9722 -0.5654 -1.8577
  274SOL    HW2 1095   1.417   0.729   0.191  1.3990 -0.1764 -2.1583
  274SOL     MW 1096   1.479   0.718   0.135 -0.0334  0.0570 -0.6848
  275SOL     OW 1097   1.720   0.572   1.787 -0.0901 -0.2173 -0.6819
  275SOL    HW1 1098   1.798   0.610   1.832  0.5221  0.3377 -0.5098
  275SOL    HW2 1099   1.738   0.480   1.781 -1.8192  1.2175 -0.3527
  275SOL     MW 1100   1.733   0.565   1.792 -0.2374  0.0453 -0.6158
  276SOL     OW 1101   0.286   1.210   1.857  0.5503  0.4265  0.7141
  276SOL    HW1 1102   0.318   1.131   1.906 -1.8077  0.8504  2.0070
  276SOL    HW2 1103   0.202   1.224   1.902  2.1261 -0.0700  1.2155
  276SOL     MW 1104   0.279   1.202   1.869  0.4471  0.4169  0.9509
  277SOL     OW 1105   1.876   1.297   2.435  0.1643  0.3809 -0.2270
  277SOL    HW1 1106   1.941   1.328   2.494  1.7027 -3.4010  2.2605
  277SOL    HW2 1107   1.923   1.225   2.393 -0.9628 -1.2452 -1.2618
  277SOL     MW 1108   1.891   1.292   2.437  0.2186 -0.3327 -0.0353
  278SOL     OW 1109   1.464   0.620   1.720 -0.5274  0.2350  0.3883
  278SOL    HW1 1110   1.418   0.588   1.798  0.7299  2.1683 -0.5014
  278SOL    HW2 1111   1.553   0.636   1.745  1.5294 -0.0700 -1.2129
  278SOL     MW 1112   1.469   0.618   1.734 -0.0901  0.4498  0.0596
  279SOL     OW 1113   0.566  -0.004   2.270 -0.0131  0.2438  0.6186
  279SOL    HW1 1114   0.656  -0.020   2.293 -1.7511  0.3259 -0.9979
  279SOL    HW2 1115   0.556   0.090   2.261 -3.1914  0.6661 -0.3844
  279SOL     MW 1116   0.576   0.007   2.272 -0.6617  0.3103  0.2730
  280SOL     OW 1117   1.449   0.996   2.130 -0.2912 -1.1625 -0.4375
  280SOL    HW1 1118   1.516   0.934   2.094  1.8618 -1.1787 -1.0703
  280SOL    HW2 1119   1.463   0.978   2.227 -1.8699  0.9454 -0.1478
  280SOL     MW 1120   1.460   0.986   2.138 -0.2154 -0.8865 -0.4828
  281SOL     OW 1121   1.292   1.308   2.767  0.1339 -0.0748  0.0699
  281SOL    HW1 1122   1.384   1.317   2.756 -0.7961  1.6170  0.3406
  281SOL    HW2 1123   1.283   1.245   2.838  3.8554 -2.6617 -1.3636
  281SOL     MW 1124   1.303   1.301   2.775  0.5022 -0.1929 -0.0835
  282SOL     OW 1125   1.131   1.272   1.642 -0.6256 -0.2832  0.6336
  282SOL    HW1 1126   1.112   1.363   1.602  0.9529  3.2891 -1.6696
  282SOL    HW2 1127   1.092   1.284   1.732  0.0240 -0.1138  1.2600
  282SOL     MW 1128   1.123   1.286   1.649 -0.3316  0.2105  0.4123
  283SOL     OW 1129   0.761   1.222   2.980 -0.0195 -0.8449 -0.0635
  283SOL    HW1 1130   0.828   1.188   3.042  4.2663 -0.1851 -0.4814
  283SOL    HW2 1131   0.742   1.316   3.014 -0.7057  1.2942 -2.0251
  283SOL     MW 1132   0.768   1.230   2.993  0.4555 -0.4756 -0.3774
  284SOL     OW 1133   0.524   0.642   2.389 -0.7107 -0.0870  0.5947
  284SOL    HW1 1134   0.595   0.687   2.338 -1.2686 -1.9248 -0.3147
  284SOL    HW2 1135   0.484   0.587   2.325  0.3894  2.0162  0.1356
  284SOL     MW 1136   0.528   0.641   2.374 -0.6392 -0.0520  0.4141
  285SOL     OW 1137   0.889   0.918   2.796  0.8316  0.1674  0.1553
  285SOL    HW1 1138   0.917   0.942   2.704  2.1261  3.3735  0.0649
  285SOL    HW2 1139   0.858   0.828   2.800 -0.2033 -2.3778 -1.6555
  285SOL     MW 1140   0.889   0.909   2.785  0.8659  0.2546 -0.0955
  286SOL     OW 1141   1.182   1.519   2.597  0.1421  0.2135 -0.1312
  286SOL    HW1 1142   1.210   1.475   2.674  0.5741  0.4771  0.3370
  286SOL    HW2 1143   1.217   1.606   2.575  1.6243 -0.9155  0.8446
  286SOL     MW 1144   1.190   1.525   2.604  0.3947  0.0993  0.0593
  287SOL     OW 1145   1.105   0.947   0.293  0.0564 -0.4320 -0.1846
  287SOL    HW1 1146   1.107   1.009   0.367 -3.3619  0.9019  1.3923
  287SOL    HW2 1147   1.028   0.974   0.243  0.9870  2.6920 -0.4879
  287SOL     MW 1148   1.095   0.959   0.296 -0.2718  0.1562 -0.0166
  288SOL     OW 1149   1.535   0.604   2.101 -0.1383 -0.4358 -0.1816
  288SOL    HW1 1150   1.518   0.629   2.191 -1.0462 -1.1502  0.3987
  288SOL    HW2 1151   1.535   0.687   2.047  0.2102 -0.7808  1.8364
  288SOL     MW 1152   1.533   0.618   2.106 -0.2121 -0.5756  0.1612
  289SOL     OW 1153   0.985   1.032   2.570 -0.1873  0.2582 -0.1545
  289SOL    HW1 1154   1.033   0.952   2.545 -2.5643 -0.8772  1.1273
  289SOL    HW2 1155   0.901   1.028   2.524 -1.2759  0.9465  2.8089
  289SOL     MW 1156   0.980   1.021   2.560 -0.6445  0.1992  0.4056
  290SOL     OW 1157   0.873   0.644   1.567 -0.4983 -0.4687  0.8381
  290SOL    HW1 1158   0.937   0.612   1.497  1.0222  2.2396 -0.2052
  290SOL    HW2 1159   0.929   0.641   1.646 -0.5841  0.4523 -0.4376
  290SOL     MW 1160   0.889   0.639   1.568 -0.3090  0.0102  0.5321
  291SOL     OW 1161   0.212   0.328   0.149  0.2331 -0.3094 -0.3252
  291SOL    HW1 1162   0.280   0.266   0.187  2.3657  0.1533  2.2765
  291SOL    HW2 1163   0.169   0.271   0.075 -0.9790 -3.5114 -1.0893
  291SOL     MW 1164   0.215   0.312   0.144  0.3545 -0.6708 -0.0828
  292SOL     OW 1165   1.009   0.591   0.096  0.0772  0.3189  0.2206
  292SOL    HW1 1166   1.075   0.628   0.151 -0.6755 -1.0649 -1.3912
  292SOL    HW2 1167   1.016   0.497   0.131 -0.3062 -0.1800 -1.6557
  292SOL     MW 1168   1.019   0.583   0.108 -0.0727  0.0705 -0.2396
  293SOL     OW 1169   0.173   0.130   2.445  0.2656 -0.2227 -0.2471
  293SOL    HW1 1170   0.124   0.116   2.365  0.5664  0.7829 -0.9867
  293SOL    HW2 1171   0.110   0.134   2.512 -1.1393 -0.7419 -1.8798
  293SOL     MW 1172   0.158   0.129   2.443  0.1199 -0.1585 -0.5601
  294SOL     OW 1173   1.531   0.650   2.377 -0.3545  0.2143 -0.4886
  294SOL    HW1 1174   1.540   0.689   2.467 -1.0072 -2.3397 -2.2828
  294SOL    HW2 1175   1.518   0.561   2.398  0.8825  1.9860  4.4113
  294SOL     MW 1176   1.530   0.643   2.392 -0.2774  0.1110 -0.0788
  295SOL     OW 1177   0.916   0.615   2.525  0.6129 -0.5046 -0.2331
  295SOL    HW1 1178   0.877   0.539   2.478  2.6681  1.4508 -0.6575
  295SOL    HW2 1179   0.845   0.627   2.597  0.8414  2.7787  3.2271
  295SOL     MW 1180   0.902   0.606   2.529  0.9142  0.1866  0.1675
  296SOL     OW 1181   1.300   0.229   2.049 -0.0987 -0.0133  0.5117
  296SOL    HW1 1182   1.342   0.144   2.031  1.0416 -0.3938 -0.9819
  296SOL    HW2 1183   1.310   0.251   2.144  1.4696  2.7272 -0.4125
  296SOL     MW 1184   1.307   0.220   2.059  0.2587  0.2981  0.1927
  297SOL     OW 1185   1.415   0.363   1.618 -0.2356 -0.2768  0.5027
  297SOL    HW1 1186   1.432   0.451   1.646 -1.0070  0.9102  0.5163
  297SOL    HW2 1187   1.478   0.311   1.662  1.5185  3.1025 -0.6265
  297SOL     MW 1188   1.425   0.368   1.627 -0.1059  0.3256  0.3555
  298SOL     OW 1189   1.620   0.836   1.989  0.3615 -0.2123 -0.0366
  298SOL    HW1 1190   1.612   0.906   1.917  0.1941 -0.9232 -0.6193
  298SOL    HW2 1191   1.702   0.855   2.034  0.5704 -1.6117  0.1915
  298SOL     MW 1192   1.629   0.848   1.985  0.3670 -0.4908 -0.0834
  299SOL     OW 1193   0.564   1.071   0.047  0.8029  0.7692 -0.0062
  299SOL    HW1 1194   0.643   1.112   0.006 -0.3114 -0.3233  1.7866
  299SOL    HW2 1195   0.499   1.073  -0.023 -0.4052  1.4814  1.5540
  299SOL     MW 1196   0.566   1.077   0.033  0.4965  0.7190  0.4362
  300SOL     OW 1197   1.251   1.146   2.559  0.8352  0.6422  0.3811
  300SOL    HW1 1198   1.171   1.087   2.573  1.9906 -3.2827  3.4993
  300SOL    HW2 1199   1.252   1.195   2.639 -1.9337 -0.7206  0.8670
  300SOL     MW 1200   1.241   1.145   2.571  0.6223 -0.0554  0.8567
  301SOL     OW 1201   1.437   0.943   0.661 -0.2296 -0.8001 -0.0570
  301SOL    HW1 1202   1.476   0.970   0.743 -0.6074  1.2037  1.8967
  301SOL    HW2 1203   1.363   0.888   0.679  0.7493  2.3983 -1.2833
  301SOL     MW 1204   1.433   0.939   0.674 -0.1503 -0.1137  0.0390
  302SOL     OW 1205   0.146   1.487   2.012  0.2031 -0.4688 -0.1554
  302SOL    HW1 1206   0.171   1.427   2.080 -2.9097  0.5746  2.0018
  302SOL    HW2 1207   0.096   1.563   2.056  1.3142  3.5833  1.9817
  302SOL     MW 1208   0.143   1.489   2.027 -0.0610  0.2035  0.4112
  303SOL     OW 1209   0.371   1.700   2.642  0.2632  0.6269  0.1037
  303SOL    HW1 1210   0.326   1.696   2.561 -2.2958  1.3630  4.7521
  303SOL    HW2 1211   0.329   1.772   2.683  2.3717  0.2767 -0.1903
  303SOL     MW 1212   0.360   1.709   2.637  0.2038  0.6778  0.6782
  304SOL     OW 1213   0.589   2.086   2.355  0.2697  0.0233 -0.1094
  304SOL    HW1 1214   0.668   2.140   2.323 -0.8835  0.1460 -1.8012
  304SOL    HW2 1215   0.634   2.006   2.386  0.9442 -1.0875 -3.1638
  304SOL     MW 1216   0.606   2.083   2.355  0.2066 -0.1071 -0.7356
  305SOL     OW 1217   1.091   0.593   0.503  0.3035  0.2946 -0.1681
  305SOL    HW1 1218   0.999   0.605   0.477  0.7094  0.9830  1.5564
  305SOL    HW2 1219   1.093   0.505   0.546  1.6521 -2.8091  1.4470
  305SOL     MW 1220   1.079   0.583   0.505  0.5350 -0.0241  0.2725
  306SOL     OW 1221   1.193   1.469   0.268 -0.1397  0.1243  0.2276
  306SOL    HW1 1222   1.214   1.386   0.317  0.4802 -1.8695 -0.3642
  306SOL    HW2 1223   1.268   1.500   0.232 -1.2890  0.3117  1.1521
  306SOL     MW 1224   1.206   1.463   0.270 -0.2095 -0.1140  0.2715
  307SOL     OW 1225   1.333   0.491   1.933 -0.4811  0.2530  0.2822
  307SOL    HW1 1226   1.293   0.414   1.961  1.4766  3.1169 -0.2928
  307SOL    HW2 1227   1.405   0.484   1.994 -0.9503 -1.5855 -1.2065
  307SOL     MW 1228   1.337   0.480   1.945 -0.2847  0.3883  0.0099
  308SOL     OW 1229   2.148   0.576   2.712  0.1601 -0.4133  0.4520
  308SOL    HW1 1230   2.239   0.568   2.750 -1.0703  0.7067 -1.7177
  308SOL    HW2 1231   2.148   0.666   2.689 -0.8723 -0.4327  1.2691
  308SOL     MW 1232   2.160   0.587   2.714 -0.1384 -0.2681  0.2736
  309SOL     OW 1233   0.442   0.360   0.366  0.3402  0.0268 -0.3620
  309SOL    HW1 1234   0.502   0.333   0.436  0.4230 -0.2658 -1.1457
  309SOL    HW2 1235   0.465   0.306   0.291  0.6521  1.2040  0.1696
  309SOL     MW 1236   0.453   0.349   0.365  0.3923  0.1435 -0.3953
  310SOL     OW 1237   0.504   0.627   1.941  0.2138  0.3493  0.3091
  310SOL    HW1 1238   0.536   0.538   1.907 -1.4674  0.5620  0.4429
  310SOL    HW2 1239   0.578   0.682   1.925 -1.7162 -2.6208 -3.1608
  310SOL     MW 1240   0.518   0.622   1.934 -0.2627 -0.0145 -0.1311
  311SOL     OW 1241   1.945   0.691   1.902 -0.2446  0.2217 -0.3311
  311SOL    HW1 1242   1.919   0.714   1.990  1.6417 -0.8527  0.5049
  311SOL    HW2 1243   2.000   0.610   1.907  1.8264 -1.5615 -0.4848
  311SOL     MW 1244   1.949   0.683   1.914  0.2775 -0.1553 -0.2411
  312SOL     OW 1245   1.707   2.542   0.120  1.1620  0.5251  0.1162
  312SOL    HW1 1246   1.783   2.551   0.183  3.3710 -0.3510  0.3214
  312SOL    HW2 1247   1.628   2.592   0.144 -1.0703  2.6708 -0.2099
  312SOL     MW 1248   1.707   2.550   0.131  1.1590  0.6926  0.1002
  313SOL     OW 1249   0.089   1.191   2.972  0.0125 -0.8494  0.5252
  313SOL    HW1 1250   0.074   1.175   3.066  0.1097  1.7613  1.3324
  313SOL    HW2 1251   0.178   1.226   2.958 -2.2948  0.2213 -2.1633
  313SOL     MW 1252   0.099   1.194   2.983 -0.2791 -0.3637  0.2770
  314SOL     OW 1253   2.119   2.951   3.006  0.4631 -0.3250 -0.5556
  314SOL    HW1 1254   2.063   2.996   2.940  0.4121  2.2436  0.0823
  314SOL    HW2 1255   2.172   3.032   3.020  0.9003  1.4973  0.1272
  314SOL     MW 1256   2.119   2.968   2.999  0.5141  0.2544 -0.3814
  315SOL     OW 1257   1.513   1.973   3.093  0.1341  0.1943 -0.5665
  315SOL    HW1 1258   1.430   2.020   3.102  0.9064 -0.8911  0.6809
  315SOL    HW2 1259   1.558   2.026   3.031 -1.0797 -0.1264  2.0592
  315SOL     MW 1260   1.508   1.986   3.086  0.0758  0.0087 -0.0555
  316SOL     OW 1261   1.276   0.679   2.712  0.0872  0.0796 -0.1818
  316SOL    HW1 1262   1.355   0.641   2.673  2.3198  1.8538  1.3031
  316SOL    HW2 1263   1.291   0.709   2.801  0.6547 -2.9001  0.2524
  316SOL     MW 1264   1.289   0.678   2.718  0.4566 -0.0794  0.0714
  317SOL     OW 1265   0.736   1.485   2.599  0.2567 -0.6019 -0.1340
  317SOL    HW1 1266   0.806   1.418   2.595  1.3298  0.0947  0.8544
  317SOL    HW2 1267   0.728   1.518   2.509 -0.0409  1.9404  0.2123
  317SOL     MW 1268   0.744   1.480   2.587  0.3590 -0.1746  0.0421
  318SOL     OW 1269   1.362   0.368   2.897 -0.1006  0.0171 -0.1125
  318SOL    HW1 1270   1.277   0.423   2.896 -0.4242  0.0853 -0.5760
  318SOL    HW2 1271   1.435   0.420   2.933  0.2043 -2.8395 -0.4258
  318SOL     MW 1272   1.360   0.382   2.902 -0.1030 -0.3508 -0.2150
  319SOL     OW 1273   0.780   0.407   2.857 -0.4954 -0.0377  0.1352
  319SOL    HW1 1274   0.734   0.358   2.790  2.2164  1.6107  0.3201
  319SOL    HW2 1275   0.725   0.397   2.940 -1.1336  0.2186 -1.8103
  319SOL     MW 1276   0.767   0.400   2.859 -0.2218  0.2136 -0.0971
  320SOL     OW 1277   1.079   1.337   1.947  0.3168  0.3314 -0.1367
  320SOL    HW1 1278   1.140   1.307   2.012 -0.4098 -1.2103  0.9197
  320SOL    HW2 1279   1.114   1.418   1.916 -0.0138  0.3375 -0.2752
  320SOL     MW 1280   1.092   1.343   1.952  0.1773  0.1288 -0.0156
  321SOL     OW 1281   1.095   0.931   3.017  0.6615 -0.1781  0.0944
  321SOL    HW1 1282   1.046   0.906   2.939  1.0757 -0.2314  0.6788
  321SOL    HW2 1283   1.161   0.859   3.023  1.8998  0.3762 -1.3337
  321SOL     MW 1284   1.098   0.918   3.008  0.8795 -0.1120 -0.0169
  322SOL     OW 1285   1.280   0.826   1.714  0.4267 -0.0567 -0.4342
  322SOL    HW1 1286   1.354   0.763   1.724 -0.2600  0.7139  0.2823
  322SOL    HW2 1287   1.297   0.878   1.794  1.7941  0.4884 -0.7188
  322SOL     MW 1288   1.292   0.824   1.726  0.5165  0.1169 -0.3772
  323SOL     OW 1289   1.252   1.580   1.889  0.3454 -0.6318  0.7893
  323SOL    HW1 1290   1.269   1.566   1.792 -1.1943 -1.8991 -1.6489
  323SOL    HW2 1291   1.171   1.634   1.901  0.2541 -0.7329  2.1265
  323SOL     MW 1292   1.244   1.585   1.877  0.1302 -0.8123  0.6440
  324SOL     OW 1293   1.497   0.978   2.389 -0.0024 -0.8132  0.2810
  324SOL    HW1 1294   1.412   0.981   2.447  2.2420  0.4720 -0.4620
  324SOL    HW2 1295   1.541   1.052   2.433  0.1501 -1.4069 -1.7258
  324SOL     MW 1296   1.492   0.988   2.402  0.3138 -0.7220 -0.0818
  325SOL     OW 1297   1.062   0.443   2.936  0.5188 -0.5673  0.0576
  325SOL    HW1 1298   1.041   0.504   3.009  1.5561  1.0945  0.4601
  325SOL    HW2 1299   0.978   0.433   2.898 -1.9412 -3.1001  0.7961
  325SOL     MW 1300   1.048   0.449   2.941  0.3311 -0.6822  0.2081
  326SOL     OW 1301   0.444   1.362   2.203  0.1581 -0.0044  0.7354
  326SOL    HW1 1302   0.495   1.303   2.152 -0.5262  1.0513  0.7230
  326SOL    HW2 1303   0.452   1.445   2.159  0.2920  0.8076 -1.8241
  326SOL     MW 1304   0.452   1.365   2.191  0.0855  0.2420  0.3961
  327SOL     OW 1305   1.927   0.804   2.434  0.0524 -0.1458 -0.2760
  327SOL    HW1 1306   1.917   0.741   2.510 -0.0059  0.3751  0.3486
  327SOL    HW2 1307   2.017   0.828   2.430  0.9221 -0.7900  1.5238
  327SOL     MW 1308   1.938   0.799   2.443  0.1594 -0.1621  0.0439
  328SOL     OW 1309   0.166   1.263   2.217 -0.2703  0.3494 -0.1644
  328SOL    HW1 1310   0.126   1.211   2.146 -0.4423  0.2902  1.2279
  328SOL    HW2 1311   0.265   1.248   2.211  0.5067 -1.0110  0.7491
  328SOL     MW 1312   0.174   1.254   2.207 -0.1905  0.1621  0.1398
  329SOL     OW 1313   0.121   0.131   1.344  0.6328  0.7972 -0.8784
  329SOL    HW1 1314   0.061   0.157   1.413 -0.4085 -0.2107  0.1019
  329SOL    HW2 1315   0.204   0.169   1.350 -2.6789 -1.4346 -1.4131
  329SOL     MW 1316   0.124   0.139   1.354  0.0585  0.3698 -0.8196
  330SOL     OW 1317   0.338   3.088   2.050  0.5124 -0.1960 -0.5626
  330SOL    HW1 1318   0.405   3.045   2.099  1.1435 -0.8796  1.8146
  330SOL    HW2 1319   0.256   3.050   2.083 -2.7523 -1.6884  1.6256
  330SOL     MW 1320   0.336   3.078   2.061  0.1649 -0.4831  0.0398
  331SOL     OW 1321   0.863   1.180   2.298  0.5326  0.3735 -0.2799
  331SOL    HW1 1322   0.793   1.224   2.249 -3.2579 -0.6443  0.0214
  331SOL    HW2 1323   0.911   1.245   2.344  1.8633  0.0364  0.7587
  331SOL     MW 1324   0.860   1.194   2.298  0.2081  0.1947 -0.1031
  332SOL     OW 1325   1.325   1.761   3.055 -0.1843  0.3734  0.1576
  332SOL    HW1 1326   1.349   1.744   2.965  0.3715  1.5082 -0.9953
  332SOL    HW2 1327   1.377   1.838   3.065 -1.1472  3.8880 -1.0440
  332SOL     MW 1328   1.335   1.769   3.044 -0.2380  0.9868 -0.1530
  333SOL     OW 1329   1.737   1.400   2.919 -0.2392 -0.4361  0.1345
  333SOL    HW1 1330   1.829   1.419   2.898  4.4133  1.1850  3.1461
  333SOL    HW2 1331   1.738   1.353   3.003 -0.7195  1.1374 -1.0640
  333SOL     MW 1332   1.749   1.396   2.927  0.3113 -0.0146  0.3737
  334SOL     OW 1333   1.389  -0.002   2.637 -0.0943 -0.1158 -0.0068
  334SOL    HW1 1334   1.292   0.008   2.647  1.8780  3.0650  0.1467
  334SOL    HW2 1335   1.435   0.079   2.661  1.3441 -1.9777  0.0980
  334SOL     MW 1336   1.382   0.010   2.641  0.3557  0.0582  0.0273
  335SOL     OW 1337   1.323   0.786   2.978  0.6575 -0.0826  0.2277
  335SOL    HW1 1338   1.372   0.773   3.058 -1.8195  1.1375  1.5966
  335SOL    HW2 1339   1.366   0.855   2.933  3.3643 -0.6038  2.0773
  335SOL     MW 1340   1.335   0.793   2.983  0.6879  0.0096  0.6524
  336SOL     OW 1341   0.948   1.052   1.971  0.0923  0.0735  0.5799
  336SOL    HW1 1342   0.974   1.147   1.978  2.0108 -1.6916 -0.2107
  336SOL    HW2 1343   1.023   1.013   1.930 -0.2675  0.8467  1.8073
  336SOL     MW 1344   0.961   1.059   1.966  0.2980 -0.0574  0.6376
  337SOL     OW 1345   0.589   1.820   2.776  0.1328  0.0297 -0.5356
  337SOL    HW1 1346   0.514   1.767   2.734  0.7520 -3.3067  0.7459
  337SOL    HW2 1347   0.661   1.765   2.757  0.8085 -2.0584  2.7656
  337SOL     MW 1348   0.588   1.806   2.768  0.3036 -0.6860  0.0690
  338SOL     OW 1349   1.118   0.807   2.521 -0.1473 -0.1404 -0.5516
  338SOL    HW1 1350   1.053   0.734   2.502  1.4388 -2.1566  1.1321
  338SOL    HW2 1351   1.173   0.770   2.597 -0.3685 -0.6869  1.9826
  338SOL     MW 1352   1.117   0.793   2.529  0.0328 -0.4786  0.0049
  339SOL     OW 1353   1.545   1.014   1.804  0.0763 -0.0241  0.2671
  339SOL    HW1 1354   1.514   1.046   1.717  0.0568 -0.5166  0.6481
  339SOL    HW2 1355   1.462   1.019   1.853 -0.4091 -0.8543  2.1445
  339SOL     MW 1356   1.530   1.019   1.799  0.0097 -0.1986  0.5651
  340SOL     OW 1357   1.374   1.476   0.044 -0.2254  0.5536  0.4148
  340SOL    HW1 1358   1.382   1.557  -0.004  0.9640 -3.3019 -0.1439
  340SOL    HW2 1359   1.458   1.457   0.081 -1.9719 -1.8287 -0.4341
  340SOL     MW 1360   1.386   1.484   0.043 -0.2989 -0.2694  0.2291
  341SOL     OW 1361   0.151   1.449   2.696 -0.0042 -0.4496  0.1509
  341SOL    HW1 1362   0.240   1.423   2.687  0.6041 -0.7833  2.0398
  341SOL    HW2 1363   0.099   1.399   2.633 -2.1737 -0.1499  0.6728
  341SOL     MW 1364   0.156   1.439   2.686 -0.2102 -0.4541  0.4690
  342SOL     OW 1365   1.303   0.324   0.082 -0.4651  0.6945  0.1706
  342SOL    HW1 1366   1.384   0.358   0.117 -0.7305 -1.9783 -0.2192
  342SOL    HW2 1367   1.313   0.320  -0.013  2.3449 -1.6744  0.5652
  342SOL     MW 1368   1.315   0.328   0.074 -0.1294  0.0293  0.1713
  343SOL     OW 1369   0.219   0.323   2.145  0.4197 -0.1674  0.1383
  343SOL    HW1 1370   0.279   0.248   2.165  0.4817  0.2252 -2.0685
  343SOL    HW2 1371   0.151   0.281   2.092 -1.1643  0.5246 -0.7132
  343SOL     MW 1372   0.218   0.308   2.141  0.2189 -0.0243 -0.2652
  344SOL     OW 1373   1.700   2.066   0.189  0.2200  0.1004  0.4943
  344SOL    HW1 1374   1.718   2.131   0.121  0.6897 -0.4366 -1.5041
  344SOL    HW2 1375   1.613   2.030   0.158 -2.1890  1.5275 -1.6795
  344SOL     MW 1376   1.691   2.070   0.176 -0.0359  0.2179 -0.0562
  345SOL     OW 1377   0.756   1.588   2.329 -0.1586 -0.0421  0.4518
  345SOL    HW1 1378   0.682   1.632   2.285 -2.8548  0.0768  0.3835
  345SOL    HW2 1379   0.811   1.533   2.270 -0.7881  0.2326  0.0165
  345SOL     MW 1380   0.754   1.586   2.316 -0.5974  0.0098  0.3853
  346SOL     OW 1381   1.776   1.083   3.085 -0.0431 -0.7272  0.2451
  346SOL    HW1 1382   1.864   1.126   3.097  1.0155 -0.4452 -3.2257
  346SOL    HW2 1383   1.760   1.022   3.157 -1.2290 -0.3476 -1.4514
  346SOL     MW 1384   1.786   1.080   3.096 -0.0599 -0.6399 -0.4367
  347SOL     OW 1385   1.279   0.757   2.291  0.1694 -0.5526  0.2531
  347SOL    HW1 1386   1.362   0.731   2.322  0.5408 -0.1498  0.5635
  347SOL    HW2 1387   1.229   0.800   2.365  0.5490  1.5526  1.4759
  347SOL     MW 1388   1.283   0.760   2.305  0.2685 -0.2217  0.4554
  348SOL     OW 1389   1.430   2.657   1.877  0.1189  0.4775  0.4467
  348SOL    HW1 1390   1.452   2.571   1.911 -1.6394 -1.6273 -0.2274
  348SOL    HW2 1391   1.439   2.715   1.949  0.9905  0.9195 -0.2923
  348SOL     MW 1392   1.434   2.653   1.891  0.0019  0.2581  0.2603
  349SOL     OW 1393   1.512   0.274   2.696 -0.1435  0.4557  0.3107
  349SOL    HW1 1394   1.451   0.303   2.762 -0.5543  0.3765 -2.0657
  349SOL    HW2 1395   1.598   0.281   2.733 -1.2557 -0.9264 -3.2378
  349SOL     MW 1396   1.515   0.279   2.709 -0.3445  0.2629 -0.4710
  350SOL     OW 1397   1.878   0.613   2.664  0.7487  0.0702  0.3115
  350SOL    HW1 1398   1.827   0.540   2.638 -0.5880  0.5106 -1.3881
  350SOL    HW2 1399   1.956   0.580   2.711 -1.2153  0.9230  2.0113
  350SOL     MW 1400   1.881   0.599   2.667  0.3132  0.2408  0.3116
  351SOL     OW 1401   0.059   0.938   1.498 -0.3528  0.6658 -0.4691
  351SOL    HW1 1402  -0.008   0.976   1.559 -0.1127 -2.4229  1.2350
  351SOL    HW2 1403   0.124   1.009   1.494 -2.2286 -1.9534 -1.2038
  351SOL     MW 1404   0.059   0.952   1.506 -0.5686 -0.0873 -0.3412
  352SOL     OW 1405   0.845   1.687   2.722 -0.7071 -0.0015 -0.3960
  352SOL    HW1 1406   0.904   1.640   2.783 -0.5665 -1.0827  2.5062
  352SOL    HW2 1407   0.792   1.621   2.675 -1.1881  1.1239  3.5147
  352SOL     MW 1408   0.845   1.672   2.724 -0.7520  0.0043  0.5029
  353SOL     OW 1409   3.081   2.480   2.666 -0.0129  0.4036 -0.6114
  353SOL    HW1 1410   3.163   2.500   2.621 -1.7037  2.0097 -0.6921
  353SOL    HW2 1411   3.028   2.557   2.648 -1.2467  1.8286 -1.0094
  353SOL     MW 1412   3.084   2.493   2.658 -0.3987  0.8036 -0.6745
  354SOL     OW 1413   0.332   2.532   0.838 -0.6828  0.4463 -0.3592
  354SOL    HW1 1414   0.363   2.524   0.927  0.3176  0.1576 -2.3857
  354SOL    HW2 1415   0.269   2.462   0.829 -0.1945 -0.3900  0.9218
  354SOL     MW 1416   0.328   2.522   0.849 -0.4864  0.2979 -0.4575
  355SOL     OW 1417   0.033   2.277   0.366  0.0952 -0.0701  0.7703
  355SOL    HW1 1418  -0.040   2.213   0.383  0.2448  1.2371  0.8248
  355SOL    HW2 1419   0.010   2.346   0.428  0.1803  1.0477  1.0412
  355SOL     MW 1420   0.020   2.277   0.377  0.1262  0.2498  0.8132
  356SOL     OW 1421   0.806   2.864   0.987 -0.0904 -0.6648 -0.0526
  356SOL    HW1 1422   0.825   2.868   0.892  1.3735 -1.2821 -0.4482
  356SOL    HW2 1423   0.711   2.834   1.001  0.7506  0.8672 -1.6195
  356SOL     MW 1424   0.796   2.860   0.976  0.2137 -0.5441 -0.3116
  357SOL     OW 1425   1.797   2.944   0.428 -0.1818  0.0017 -0.0494
  357SOL    HW1 1426   1.732   2.886   0.473  2.9355 -0.8961  0.7313
  357SOL    HW2 1427   1.868   2.885   0.414 -1.0768 -3.5023  2.3146
  357SOL     MW 1428   1.798   2.929   0.432  0.1114 -0.5791  0.3655
  358SOL     OW 1429   0.513   0.104   1.094 -0.3540  0.4935  0.1902
  358SOL    HW1 1430   0.598   0.105   1.052 -1.3741  2.6386  1.1475
  358SOL    HW2 1431   0.452   0.155   1.039  0.2747 -0.4648  2.0510
  358SOL     MW 1432   0.516   0.110   1.081 -0.4057  0.6501  0.5620
  359SOL     OW 1433   0.890   2.919   1.855  0.0086  0.9212 -0.1446
  359SOL    HW1 1434   0.877   2.825   1.886 -0.4769  0.6708  1.3698
  359SOL    HW2 1435   0.942   2.892   1.776 -0.3987  0.2298  1.9958
  359SOL     MW 1436   0.895   2.903   1.849 -0.1092  0.7969  0.3376
  360SOL     OW 1437   0.545   2.748   1.003 -0.4448 -0.0768 -0.2827
  360SOL    HW1 1438   0.541   2.698   0.919 -0.4109 -1.5851 -1.9408
  360SOL    HW2 1439   0.544   2.682   1.073 -0.4510 -2.6547 -1.2002
  360SOL     MW 1440   0.544   2.732   1.001 -0.4412 -0.6159 -0.6225
  361SOL     OW 1441   0.187   2.688   1.328 -0.5207  0.2480 -0.1477
  361SOL    HW1 1442   0.137   2.752   1.381  0.2130 -0.3900  0.1871
  361SOL    HW2 1443   0.283   2.702   1.351 -0.8027 -1.0830  0.6712
  361SOL     MW 1444   0.193   2.698   1.338 -0.4611 -0.0118  0.0045
  362SOL     OW 1445   1.480   2.437   0.622  0.2122  0.4410 -0.4409
  362SOL    HW1 1446   1.499   2.350   0.664 -0.2476  0.3984  2.5721
  362SOL    HW2 1447   1.458   2.486   0.698 -0.0732  0.1830  0.5139
  362SOL     MW 1448   1.479   2.432   0.638  0.1139  0.4013  0.0826
  363SOL     OW 1449   0.304   3.076   0.719  0.2507 -0.2454 -0.0214
  363SOL    HW1 1450   0.296   3.010   0.792 -1.6875  0.3209 -0.0504
  363SOL    HW2 1451   0.218   3.084   0.683 -0.2952 -0.7493 -0.0603
  363SOL     MW 1452   0.291   3.068   0.724 -0.0771 -0.2372 -0.0304
  364SOL     OW 1453   0.706   0.180   0.227 -0.6237 -0.0352 -0.1904
  364SOL    HW1 1454   0.668   0.100   0.268 -0.8829 -3.7202 -0.0994
  364SOL    HW2 1455   0.637   0.219   0.169 -1.8716 -0.4352 -0.7767
  364SOL     MW 1456   0.692   0.175   0.225 -0.8226 -0.5742 -0.2557
  365SOL     OW 1457   0.983   1.965   1.063  0.0947  0.5234 -0.0921
  365SOL    HW1 1458   0.967   2.057   1.043  0.0136 -2.7027  2.0783
  365SOL    HW2 1459   0.908   1.917   1.025 -1.4266  0.5141  0.3178
  365SOL     MW 1460   0.971   1.971   1.056 -0.1167  0.0965  0.2484
  366SOL     OW 1461   2.815   2.623   1.014  0.2490 -0.1644  0.0804
  366SOL    HW1 1462   2.886   2.644   1.083  2.6272  2.6170 -0.2969
  366SOL    HW2 1463   2.866   2.658   0.943 -1.4688 -1.2323 -1.0537
  366SOL     MW 1464   2.831   2.631   1.014  0.3361  0.0617 -0.1190
  367SOL     OW 1465   1.253   2.930   0.920 -0.1153  0.3003 -0.5418
  367SOL    HW1 1466   1.255   2.990   0.847  2.4932  1.4841 -2.0816
  367SOL    HW2 1467   1.190   2.861   0.889 -1.4363  0.3709 -0.2541
  367SOL     MW 1468   1.245   2.929   0.906  0.0546  0.4658 -0.7070
  368SOL     OW 1469   1.630   0.402   0.683 -0.1358  0.2917 -0.1671
  368SOL    HW1 1470   1.715   0.365   0.654 -0.5559 -2.9726  1.0781
  368SOL    HW2 1471   1.653   0.500   0.693  3.2210 -2.4659 -0.4705
  368SOL     MW 1472   1.644   0.410   0.681  0.2517 -0.5028 -0.0428
  369SOL     OW 1473   0.149   2.525   1.655 -0.4702  0.7115  0.0542
  369SOL    HW1 1474   0.242   2.520   1.679  1.1040 -0.8066  2.1844
  369SOL    HW2 1475   0.104   2.588   1.701  0.6942 -0.9399 -3.0058
  369SOL     MW 1476   0.155   2.533   1.664 -0.1089  0.2933 -0.0685
  370SOL     OW 1477   0.748   0.033   0.920 -0.1528  0.6181 -0.0486
  370SOL    HW1 1478   0.839   0.065   0.902  0.1114  2.3932 -0.1877
  370SOL    HW2 1479   0.751  -0.046   0.971  2.3694  0.8160  2.1417
  370SOL     MW 1480   0.760   0.027   0.924  0.2148  0.8784  0.2221
  371SOL     OW 1481   1.348   2.938   1.512 -0.5831 -0.3280 -0.3557
  371SOL    HW1 1482   1.281   2.877   1.480 -0.5323  0.2756 -0.0247
  371SOL    HW2 1483   1.322   3.027   1.475 -0.6800  1.8188 -2.1923
  371SOL     MW 1484   1.336   2.942   1.503 -0.5892  0.0349 -0.5543
  372SOL     OW 1485   0.773   2.338   0.459  0.1521  0.1160 -0.2079
  372SOL    HW1 1486   0.740   2.254   0.492  1.0787  0.1410 -1.9148
  372SOL    HW2 1487   0.811   2.317   0.368  0.7872 -2.8117 -1.7705
  372SOL     MW 1488   0.773   2.324   0.452  0.3582 -0.2670 -0.6393
  373SOL     OW 1489   2.757   3.052   1.429 -0.3408 -0.2184  0.4302
  373SOL    HW1 1490   2.830   3.011   1.386 -2.1045 -0.0928  1.7744
  373SOL    HW2 1491   2.731   3.125   1.370  2.0561  0.8674  1.1747
  373SOL     MW 1492   2.763   3.056   1.415 -0.2572 -0.0586  0.7058
  374SOL     OW 1493   1.533   0.441   0.217 -0.7409  0.1754  0.0554
  374SOL    HW1 1494   1.612   0.381   0.226  1.1623  0.7239  1.5143
  374SOL    HW2 1495   1.501   0.468   0.303  0.0186 -0.6677  2.1012
  374SOL     MW 1496   1.539   0.437   0.230 -0.3896  0.1365  0.5178
  375SOL     OW 1497   1.059   2.076   2.268 -0.5040  0.1900  0.9341
  375SOL    HW1 1498   1.117   2.066   2.345 -1.9022 -1.3722 -2.4270
  375SOL    HW2 1499   1.055   1.989   2.229  1.4919  1.9543 -2.0027
  375SOL     MW 1500   1.066   2.063   2.273 -0.4251  0.2167  0.1032
  376SOL     OW 1501   0.613   2.564   0.074  0.0042  0.2639 -0.7731
  376SOL    HW1 1502   0.626   2.519   0.169  0.3353  0.5605  1.5872
  376SOL    HW2 1503   0.598   2.497   0.011 -0.5748 -0.1599 -1.6048
  376SOL     MW 1504   0.613   2.549   0.078 -0.0285  0.2472 -0.5714
  377SOL     OW 1505   1.317   2.007   0.826 -0.3022  0.1208  0.2475
  377SOL    HW1 1506   1.254   1.995   0.752  0.6314  0.5791 -0.5579
  377SOL    HW2 1507   1.282   1.948   0.895 -2.9909 -1.2765 -0.5521
  377SOL     MW 1508   1.304   1.997   0.825 -0.5338 -0.0031  0.0358
  378SOL     OW 1509   1.035   2.810   1.638 -0.4595  0.1987  0.0421
  378SOL    HW1 1510   0.990   2.723   1.651 -0.1618 -1.2069 -0.6605
  378SOL    HW2 1511   0.985   2.850   1.564 -0.9084 -3.6512 -3.6286
  378SOL     MW 1512   1.022   2.804   1.630 -0.4795 -0.4947 -0.5349
  379SOL     OW 1513   1.146   1.782   2.265  0.1983 -0.0192 -0.2056
  379SOL    HW1 1514   1.065   1.733   2.252 -1.0842  2.3431  2.4965
  379SOL    HW2 1515   1.212   1.730   2.216 -0.0470 -2.0998 -1.0227
  379SOL     MW 1516   1.144   1.769   2.257 -0.0033  0.0179  0.0431
  380SOL     OW 1517   0.795   0.061   1.569 -0.6272 -0.2017 -0.0375
  380SOL    HW1 1518   0.837   0.054   1.486  0.5050 -2.9989  2.9918
  380SOL    HW2 1519   0.857   0.112   1.621 -0.8196  0.9882  1.6000
  380SOL     MW 1520   0.808   0.067   1.565 -0.5032 -0.4138  0.5783
  381SOL     OW 1521   0.827   2.025   0.780 -0.0357  1.0084 -0.7783
  381SOL    HW1 1522   0.917   2.003   0.743 -0.0180 -0.3495  0.6990
  381SOL    HW2 1523   0.838   2.099   0.840  1.5621 -0.1257  1.4171
  381SOL     MW 1524   0.840   2.032   0.783  0.1774  0.6796 -0.2937
  382SOL     OW 1525   0.612   0.111   0.688 -0.1981 -0.5273 -0.2020
  382SOL    HW1 1526   0.651   0.101   0.782  1.6536 -2.4333  1.6780
  382SOL    HW2 1527   0.581   0.022   0.660 -0.1888  1.9227 -0.3144
  382SOL     MW 1528   0.613   0.098   0.696  0.0474 -0.4555  0.0312
  383SOL     OW 1529   0.565   3.060   0.349 -0.3107 -0.3828  0.1852
  383SOL    HW1 1530   0.583   2.998   0.281  0.2928  0.0153  2.2953
  383SOL    HW2 1531   0.488   3.019   0.382  1.1478  0.6752 -1.3834
  383SOL     MW 1532   0.557   3.047   0.344 -0.0386 -0.1907  0.2566
  384SOL     OW 1533   0.606   2.946   0.640  0.1790  0.4008 -0.1682
  384SOL    HW1 1534   0.690   2.913   0.657 -1.1337 -0.0302 -0.0509
  384SOL    HW2 1535   0.544   2.878   0.658 -1.9820  4.5480  0.4094
  384SOL     MW 1536   0.609   2.933   0.644 -0.2793  0.8911 -0.0765
  385SOL     OW 1537   1.323   2.067   1.502  0.0484  0.4113 -0.1580
  385SOL    HW1 1538   1.384   2.133   1.538  2.3646 -0.1508  1.6281
  385SOL    HW2 1539   1.309   2.002   1.572  2.0477  2.2033 -0.3340
  385SOL     MW 1540   1.329   2.067   1.516  0.6178  0.5735  0.0544
  386SOL     OW 1541   1.303   0.368   0.817 -0.3392 -0.0222  0.3056
  386SOL    HW1 1542   1.248   0.415   0.882 -2.2637 -1.3615  4.0906
  386SOL    HW2 1543   1.334   0.290   0.858 -1.7671 -1.2152 -2.4842
  386SOL     MW 1544   1.300   0.364   0.831 -0.7815 -0.3563  0.4369
  387SOL     OW 1545   0.889   2.153   1.477 -0.1649  0.1980  0.2295
  387SOL    HW1 1546   0.885   2.218   1.408  0.4330  2.1963  1.4753
  387SOL    HW2 1547   0.872   2.070   1.433 -1.2084  2.9893 -0.3452
  387SOL     MW 1548   0.886   2.151   1.462 -0.2237  0.8299  0.3180
  388SOL     OW 1549   1.573   2.816   1.199 -0.1634 -0.1337  0.5307
  388SOL    HW1 1550   1.490   2.783   1.165  1.2736 -1.1990  1.9370
  388SOL    HW2 1551   1.637   2.756   1.167 -0.7084  1.8837 -2.2423
  388SOL     MW 1552   1.570   2.804   1.190 -0.0457 -0.0081  0.3504
  389SOL     OW 1553   0.447   0.043   3.032  0.6466  0.0432 -0.0314
  389SOL    HW1 1554   0.546   0.064   3.028  0.7068  2.2760  1.4466
  389SOL    HW2 1555   0.405   0.081   2.957  2.3946 -1.3659 -1.1163
  389SOL     MW 1556   0.455   0.051   3.022  0.8852  0.1519  0.0204
  390SOL     OW 1557   1.295   0.103   0.648 -0.3673  0.0311 -0.1488
  390SOL    HW1 1558   1.365   0.081   0.589 -2.6572  0.0582  0.2430
  390SOL    HW2 1559   1.341   0.099   0.735 -0.8073 -0.3839 -0.3799
  390SOL     MW 1560   1.310   0.099   0.652 -0.7275 -0.0201 -0.1276
  391SOL     OW 1561   0.307   2.212   1.374  0.2936 -0.7417  0.1662
  391SOL    HW1 1562   0.255   2.130   1.411 -1.5011 -1.2981  0.7887
  391SOL    HW2 1563   0.235   2.280   1.377  0.7922  1.7639  1.2635
  391SOL     MW 1564   0.290   2.210   1.379  0.1226 -0.4845  0.3931
  392SOL     OW 1565   2.036   2.191   0.377  0.4115  0.3078 -0.1424
  392SOL    HW1 1566   2.110   2.155   0.421 -1.9465 -2.7576 -0.5283
  392SOL    HW2 1567   2.016   2.276   0.414  0.1013 -1.8822  0.6761
  392SOL     MW 1568   2.043   2.198   0.388  0.0595 -0.3856 -0.0853
  393SOL     OW 1569   0.149   3.059   2.746  0.0468  0.3957 -0.1643
  393SOL    HW1 1570   0.236   3.039   2.727 -1.5006  2.1049  2.6497
  393SOL    HW2 1571   0.131   3.154   2.733 -3.1499 -1.1018 -0.4327
  393SOL     MW 1572   0.158   3.069   2.742 -0.5791  0.4236  0.1716
  394SOL     OW 1573   0.919   1.752   1.521  0.0469 -0.7292  0.0979
  394SOL    HW1 1574   0.854   1.778   1.591  0.9274  0.6758  0.7596
  394SOL    HW2 1575   0.905   1.822   1.460  0.2659 -0.8388  1.9038
  394SOL     MW 1576   0.909   1.764   1.522  0.1920 -0.5583  0.4234
  395SOL     OW 1577   1.043   2.796   2.583 -0.1206  0.0973  0.3345
  395SOL    HW1 1578   1.087   2.876   2.612 -0.9739 -0.4274 -5.5443
  395SOL    HW2 1579   1.115   2.736   2.575 -2.2177  0.0462 -0.3278
  395SOL     MW 1580   1.058   2.799   2.586 -0.5099  0.0213 -0.5285
  396SOL     OW 1581   0.785   1.871   2.401 -1.0572  0.0160 -0.4506
  396SOL    HW1 1582   0.856   1.893   2.466  0.0367 -2.1080  0.2507
  396SOL    HW2 1583   0.785   1.774   2.399 -0.8226 -2.6124  2.3320
  396SOL     MW 1584   0.795   1.861   2.409 -0.8819 -0.6110  0.0091
  397SOL     OW 1585   1.012   2.326   1.252 -0.3546 -0.2925 -0.1911
  397SOL    HW1 1586   1.050   2.373   1.170 -1.3460 -0.3136  0.1345
  397SOL    HW2 1587   1.080   2.334   1.324 -0.2768  0.9257 -0.0456
  397SOL     MW 1588   1.026   2.333   1.251 -0.4752 -0.1345 -0.1290
  398SOL     OW 1589   0.539   2.694   0.725 -0.0226 -0.5224 -0.2392
  398SOL    HW1 1590   0.459   2.634   0.713 -2.9222  0.0578 -0.3636
  398SOL    HW2 1591   0.616   2.648   0.683  0.5012 -0.9503 -0.2888
  398SOL     MW 1592   0.538   2.680   0.718 -0.3360 -0.5023 -0.2621
  399SOL     OW 1593   0.240   2.089   0.392 -0.1894 -0.2310 -0.2494
  399SOL    HW1 1594   0.176   2.159   0.384  3.6635  3.0319  0.3728
  399SOL    HW2 1595   0.319   2.114   0.338  1.9067  1.4114 -2.1174
  399SOL     MW 1596   0.242   2.102   0.383  0.5955  0.4162 -0.4138
  400SOL     OW 1597   0.537   1.896   0.166  0.7167  0.0520  0.1619
  400SOL    HW1 1598   0.467   1.960   0.161 -0.3862  1.0316  0.0142
  400SOL    HW2 1599   0.492   1.842   0.236 -0.6833  2.2806  2.2554
  400SOL     MW 1600   0.522   1.898   0.175  0.3865  0.4753  0.4186
  401SOL     OW 1601   0.799   2.030   0.117 -1.3291 -0.3942 -0.2029
  401SOL    HW1 1602   0.846   1.960   0.158 -1.2729 -1.8214  1.8872
  401SOL    HW2 1603   0.707   1.990   0.108 -1.3601 -1.5691  0.8445
  401SOL     MW 1604   0.793   2.016   0.121 -1.3258 -0.7375  0.2111
  402SOL     OW 1605   0.621   3.015   1.736 -0.1182  0.6799  0.3537
  402SOL    HW1 1606   0.681   2.969   1.799 -0.7686 -2.0064 -2.5341
  402SOL    HW2 1607   0.682   3.050   1.664  0.0884 -0.2692  0.8977
  402SOL     MW 1608   0.637   3.013   1.735 -0.1767  0.2002  0.0445
  403SOL     OW 1609   0.093   0.417   0.370  0.4288 -0.0184 -0.1617
  403SOL    HW1 1610   0.161   0.462   0.414 -1.0733 -0.3818  1.1717
  403SOL    HW2 1611   0.134   0.390   0.284  0.3847 -3.0860  0.4475
  403SOL     MW 1612   0.108   0.419   0.364  0.2248 -0.4711  0.0946
  404SOL     OW 1613   0.869   2.847   0.724  0.4213  0.4528 -0.6180
  404SOL    HW1 1614   0.921   2.783   0.672  0.2524 -2.0299  0.9966
  404SOL    HW2 1615   0.895   2.937   0.699 -1.3848 -0.3282 -3.5486
  404SOL     MW 1616   0.880   2.851   0.714  0.1607  0.0222 -0.7916
  405SOL     OW 1617   0.500   2.388   1.483  0.2885 -0.1763 -0.7352
  405SOL    HW1 1618   0.485   2.475   1.442  1.6576 -0.1558  0.3891
  405SOL    HW2 1619   0.435   2.331   1.445  0.3907  2.0806  2.9629
  405SOL     MW 1620   0.490   2.392   1.473  0.4826  0.1242 -0.0990
  406SOL     OW 1621   0.382   2.400   1.080  0.3463 -0.7312 -0.1832
  406SOL    HW1 1622   0.286   2.409   1.100  0.9652 -1.3553  0.5321
  406SOL    HW2 1623   0.400   2.308   1.068  1.9390 -1.5563  0.3238
  406SOL     MW 1624   0.372   2.389   1.081  0.6381 -0.9224 -0.0219
  407SOL     OW 1625   3.049   2.709   1.149 -0.3987 -0.0354 -0.5159
  407SOL    HW1 1626   3.128   2.690   1.208 -0.7118  0.8387  0.6012
  407SOL    HW2 1627   3.086   2.732   1.060 -2.2661  1.3918  1.0060
  407SOL     MW 1628   3.064   2.710   1.145 -0.6864  0.2682 -0.1677
  408SOL     OW 1629   2.118   2.071   0.792 -0.0918  0.3839 -0.1484
  408SOL    HW1 1630   2.059   2.102   0.860  0.9635  0.3668  0.1652
  408SOL    HW2 1631   2.078   2.004   0.743  1.6658 -2.5610  1.5861
  408SOL     MW 1632   2.105   2.067   0.794  0.2793 -0.0069  0.1218
  409SOL     OW 1633   1.411   0.111   0.902  0.5126  0.3609 -0.4334
  409SOL    HW1 1634   1.493   0.157   0.901 -0.5468 -0.6712  0.1320
  409SOL    HW2 1635   1.415   0.060   0.982 -1.7788  2.8688 -0.7024
  409SOL     MW 1636   1.422   0.111   0.913  0.0705  0.5556 -0.3943
  410SOL     OW 1637   1.134   2.465   1.030 -0.2522  0.0066  0.1730
  410SOL    HW1 1638   1.051   2.472   0.987 -0.3137 -3.0875 -0.9852
  410SOL    HW2 1639   1.181   2.394   0.980  2.1894  1.5514 -1.3935
  410SOL     MW 1640   1.129   2.456   1.018  0.0618 -0.1978 -0.1865
  411SOL     OW 1641   1.968   0.023   2.855  0.1404  0.0894  0.3630
  411SOL    HW1 1642   1.891   0.022   2.796  0.8968  0.9120  2.6245
  411SOL    HW2 1643   1.934   0.061   2.937  1.3954  2.3192 -0.8539
  411SOL     MW 1644   1.953   0.028   2.858  0.4058  0.4922  0.5009
  412SOL     OW 1645   0.981   2.271   0.643  0.1887 -0.2735  0.1904
  412SOL    HW1 1646   1.043   2.344   0.641 -0.3476  0.3314  0.3301
  412SOL    HW2 1647   0.902   2.289   0.577  2.7718  2.8689 -2.8056
  412SOL     MW 1648   0.979   2.283   0.634  0.4588  0.2209 -0.1864
  413SOL     OW 1649   0.515   2.790   3.060  0.1136  0.2594 -0.0203
  413SOL    HW1 1650   0.567   2.706   3.087  1.7510  0.2370  0.8284
  413SOL    HW2 1651   0.563   2.845   3.004  1.5380 -0.3277  2.0545
  413SOL     MW 1652   0.528   2.786   3.056  0.5175  0.1789  0.3655
  414SOL     OW 1653   1.917   2.923   1.080  0.0043 -0.9367 -0.7243
  414SOL    HW1 1654   1.876   2.933   0.995  0.1902 -2.4462  1.3789
  414SOL    HW2 1655   2.002   2.867   1.073  0.6549 -0.9740  0.0716
  414SOL     MW 1656   1.923   2.917   1.068  0.1146 -1.1408 -0.3418
  415SOL     OW 1657   1.719   2.609   1.122  0.5557  0.6775 -0.5136
  415SOL    HW1 1658   1.648   2.566   1.176  0.0243 -0.6922  0.3831
  415SOL    HW2 1659   1.788   2.642   1.178  1.7543 -1.3491 -3.0804
  415SOL     MW 1660   1.719   2.608   1.136  0.6437  0.2294 -0.7339
  416SOL     OW 1661   0.522   1.948   1.364 -0.5894 -0.0379 -0.2537
  416SOL    HW1 1662   0.470   2.005   1.304 -1.4775  1.7163 -0.0108
  416SOL    HW2 1663   0.497   1.861   1.354  2.1474  0.5778  1.6581
  416SOL     MW 1664   0.512   1.944   1.355 -0.3455  0.2748  0.0306
  417SOL     OW 1665   1.018   3.061   2.045  0.5136  0.3997  0.4641
  417SOL    HW1 1666   0.958   3.035   2.121  2.4646  2.3883 -2.5556
  417SOL    HW2 1667   0.988   2.996   1.971  2.2299 -1.8593 -1.6298
  417SOL     MW 1668   1.006   3.049   2.045  0.9975  0.3640 -0.2106
  418SOL     OW 1669   0.684   2.890   0.151  0.4689 -0.5766 -0.3414
  418SOL    HW1 1670   0.761   2.909   0.095  1.4524 -0.0478  1.5771
  418SOL    HW2 1671   0.610   2.862   0.089 -0.6245  0.4635  0.3604
  418SOL     MW 1672   0.685   2.889   0.135  0.4544 -0.3696  0.0043
  419SOL     OW 1673   0.452   2.640   1.405  0.1780  0.1811  0.0499
  419SOL    HW1 1674   0.515   2.709   1.436  0.3006  1.5243  2.0261
  419SOL    HW2 1675   0.483   2.594   1.324 -3.7689  2.4410  1.4223
  419SOL     MW 1676   0.464   2.643   1.399 -0.3266  0.6565  0.4917
  420SOL     OW 1677   0.871   2.206   0.980  0.1387  0.4484 -0.9347
  420SOL    HW1 1678   0.815   2.209   1.060 -1.0149 -0.0556  0.2380
  420SOL    HW2 1679   0.932   2.280   0.987  0.5379 -3.0744  1.2382
  420SOL     MW 1680   0.871   2.216   0.991  0.0392 -0.0829 -0.4933
  421SOL     OW 1681   2.946   0.038   0.018  0.1488 -0.3303  0.4176
  421SOL    HW1 1682   2.882   0.014  -0.048 -0.0658  0.5734  0.1439
  421SOL    HW2 1683   2.971  -0.047   0.044  0.6923  0.5754  0.3605
  421SOL     MW 1684   2.941   0.023   0.013  0.1922 -0.0916  0.3740
  422SOL     OW 1685   0.903   2.516   0.891 -0.2954  0.5700 -0.0265
  422SOL    HW1 1686   0.857   2.592   0.928 -0.1128  1.8500  0.4326
  422SOL    HW2 1687   0.881   2.515   0.795  2.5936  1.6124 -3.7434
  422SOL     MW 1688   0.894   2.526   0.883  0.1099  0.8764 -0.4564
  423SOL     OW 1689   1.538   0.137   0.510  0.3862 -0.6419  0.1895
  423SOL    HW1 1690   1.513   0.088   0.428 -2.0276  2.1983 -2.7379
  423SOL    HW2 1691   1.528   0.235   0.486  1.9908  2.9605  2.2847
  423SOL     MW 1692   1.533   0.144   0.496  0.2795  0.2081  0.0797
  424SOL     OW 1693   0.689   2.265   1.164 -0.1303  0.0010  0.1926
  424SOL    HW1 1694   0.612   2.213   1.170  2.0686  0.6424 -0.3764
  424SOL    HW2 1695   0.694   2.318   1.246 -0.0610  0.5173 -0.9826
  424SOL     MW 1696   0.680   2.265   1.175  0.1690  0.1537 -0.0376
  425SOL     OW 1697   1.722   2.838   1.968 -0.1397 -0.3120 -0.0554
  425SOL    HW1 1698   1.740   2.854   1.873  0.0961  0.0257  0.6793
  425SOL    HW2 1699   1.758   2.757   2.002  1.7276  1.3635  0.8779
  425SOL     MW 1700   1.729   2.829   1.960  0.1378 -0.0464  0.1647
  426SOL     OW 1701   0.831   1.690   1.948 -0.6178 -0.3627  0.1041
  426SOL    HW1 1702   0.781   1.728   1.870 -1.0441  0.2576  1.5274
  426SOL    HW2 1703   0.826   1.751   2.016 -0.6211 -1.0708 -2.9962
  426SOL     MW 1704   0.824   1.703   1.947 -0.6745 -0.3743 -0.1172
  427SOL     OW 1705   0.368   1.612   1.890  0.2623 -0.1119  0.2307
  427SOL    HW1 1706   0.417   1.532   1.877 -1.5441  0.8189 -4.3909
  427SOL    HW2 1707   0.282   1.584   1.926  1.2787  1.7818  4.0659
  427SOL     MW 1708   0.363   1.597   1.893  0.1581  0.2608  0.1269
  428SOL     OW 1709   0.583   2.542   1.194  0.2550 -0.2896  0.1241
  428SOL    HW1 1710   0.679   2.532   1.210  0.4875 -3.4824  0.2584
  428SOL    HW2 1711   0.559   2.452   1.161  3.7097  0.6056 -1.1095
  428SOL     MW 1712   0.592   2.529   1.192  0.7415 -0.5928 -0.0210
  429SOL     OW 1713   1.332   2.714   1.103  0.1360  0.4667  0.4116
  429SOL    HW1 1714   1.270   2.646   1.118 -1.4984  1.2052  1.6376
  429SOL    HW2 1715   1.291   2.784   1.052  2.0247  0.5999  0.5050
  429SOL     MW 1716   1.318   2.714   1.098  0.1695  0.5817  0.5857
  430SOL     OW 1717   1.168   2.704   0.714 -0.3299 -0.2265  0.1803
  430SOL    HW1 1718   1.174   2.610   0.731 -0.9506 -0.6817 -0.0223
  430SOL    HW2 1719   1.128   2.714   0.631  0.7185  0.6039  2.9306
  430SOL     MW 1720   1.164   2.693   0.706 -0.2735 -0.1770  0.5164
  431SOL     OW 1721   0.296   1.912   1.081  0.4534  0.3103 -0.2039
  431SOL    HW1 1722   0.366   1.870   1.032 -0.5011  1.7686 -1.4953
  431SOL    HW2 1723   0.245   1.969   1.012 -0.9813  1.0596 -0.9665
  431SOL     MW 1724   0.299   1.914   1.065  0.1382  0.6016 -0.4749
  432SOL     OW 1725   0.058   3.089   1.109 -0.3567 -0.1306  0.9971
  432SOL    HW1 1726   0.067   3.148   1.185  1.3749 -0.7889  1.8435
  432SOL    HW2 1727  -0.034   3.061   1.126 -0.3808 -0.0453 -1.0444
  432SOL     MW 1728   0.047   3.093   1.121 -0.1314 -0.2062  0.8394
  433SOL     OW 1729   0.628   2.836   1.504 -0.3683  0.1809  0.7052
  433SOL    HW1 1730   0.617   2.860   1.601 -2.0135  1.7476  1.4664
  433SOL    HW2 1731   0.724   2.845   1.490 -0.8814 -0.0737  0.4402
  433SOL     MW 1732   0.639   2.841   1.515 -0.6531  0.3540  0.7707
  434SOL     OW 1733   1.594   2.818   1.490  0.6437  0.2673  0.1057
  434SOL    HW1 1734   1.506   2.856   1.510  1.0870  1.6589 -1.3852
  434SOL    HW2 1735   1.603   2.785   1.399  1.9773 -0.6750 -2.9478
  434SOL     MW 1736   1.583   2.818   1.480  0.8782  0.3265 -0.4939
  435SOL     OW 1737   2.793   1.817   0.219 -0.1449 -0.1271  0.1118
  435SOL    HW1 1738   2.816   1.906   0.181  2.4090  0.9914 -2.0929
  435SOL    HW2 1739   2.777   1.774   0.139  1.9793 -1.8788  0.5896
  435SOL     MW 1740   2.794   1.823   0.204  0.4724 -0.2107 -0.1160
  436SOL     OW 1741   1.313   2.804   0.340  0.2256 -0.4043  0.3854
  436SOL    HW1 1742   1.376   2.770   0.406  1.0146 -0.0776  1.0448
  436SOL    HW2 1743   1.273   2.882   0.390  2.0671 -1.3092 -0.4842
  436SOL     MW 1744   1.316   2.810   0.356  0.5727 -0.4806  0.3577
  437SOL     OW 1745   0.892   2.868   1.416  0.4318 -0.1015  0.1324
  437SOL    HW1 1746   0.888   2.956   1.376 -1.6175  0.2309  0.6188
  437SOL    HW2 1747   0.923   2.820   1.337 -1.1489  2.3257 -2.4122
  437SOL     MW 1748   0.895   2.873   1.400 -0.0472  0.2626 -0.1392
  438SOL     OW 1749   0.859   2.655   1.897 -0.2881 -0.2980 -0.0270
  438SOL    HW1 1750   0.855   2.624   1.981  1.9125  2.1517 -2.0131
  438SOL    HW2 1751   0.802   2.592   1.853 -0.7054  1.0916 -1.4734
  438SOL     MW 1752   0.851   2.642   1.902 -0.0528  0.2086 -0.4799
  439SOL     OW 1753   1.129   2.142   0.416  0.6812 -0.0799  0.4474
  439SOL    HW1 1754   1.062   2.172   0.485  0.8623  0.3220  1.8099
  439SOL    HW2 1755   1.148   2.218   0.360 -1.2482 -2.3865 -0.2152
  439SOL     MW 1756   1.123   2.156   0.418  0.4505 -0.3312  0.5397
  440SOL     OW 1757   1.708   2.990   0.002  0.4399 -0.2823  0.5986
  440SOL    HW1 1758   1.660   2.975   0.076  2.5798 -1.6146 -0.7879
  440SOL    HW2 1759   1.793   2.937   0.012  2.4202 -0.1491 -0.2806
  440SOL     MW 1760   1.713   2.981   0.013  0.9835 -0.4405  0.2997
  441SOL     OW 1761   0.339   2.662   0.495 -0.6298  0.1453  0.2929
  441SOL    HW1 1762   0.337   2.637   0.407 -1.8189  0.8821 -1.5467
  441SOL    HW2 1763   0.346   2.763   0.490 -0.2704  0.7958  1.2086
  441SOL     MW 1764   0.340   2.672   0.483 -0.7393  0.3284  0.1710
  442SOL     OW 1765   3.061   2.367   0.620 -0.1297  0.0787 -0.5320
  442SOL    HW1 1766   3.084   2.468   0.600  0.7830  3.6944 -1.8595
  442SOL    HW2 1767   2.976   2.369   0.662  1.3991  0.1081 -0.9966
  442SOL     MW 1768   3.052   2.380   0.623  0.1925  0.5596 -0.7685
  443SOL     OW 1769   1.416   1.803   1.913 -0.0773  0.2332 -0.5090
  443SOL    HW1 1770   1.375   1.841   1.831 -2.7584 -1.0770 -1.8792
  443SOL    HW2 1771   1.361   1.723   1.919  1.7395  2.0266 -1.0248
  443SOL     MW 1772   1.403   1.798   1.903 -0.1913  0.2970 -0.7579
  444SOL     OW 1773   0.890   2.562   1.601 -0.1439 -0.0627  0.2186
  444SOL    HW1 1774   0.945   2.491   1.626 -0.0117  0.0821 -1.1218
  444SOL    HW2 1775   0.806   2.546   1.639 -1.0715 -1.8543  1.3434
  444SOL     MW 1776   0.886   2.551   1.609 -0.2489 -0.2800  0.1901
  445SOL     OW 1777   0.905   0.020   1.296  0.0769  0.5417  0.5685
  445SOL    HW1 1778   0.858   0.103   1.288 -0.1220  0.6732  0.1951
  445SOL    HW2 1779   0.982   0.055   1.243 -0.1452  1.6780 -1.8688
  445SOL     MW 1780   0.909   0.036   1.288  0.0214  0.7090  0.1977
  446SOL     OW 1781   2.705   2.858   1.070  0.2313  0.7093 -0.4028
  446SOL    HW1 1782   2.662   2.890   0.989  2.5239  0.2759  0.3210
  446SOL    HW2 1783   2.731   2.765   1.051 -0.3282  0.5310  0.5931
  446SOL     MW 1784   2.703   2.850   1.057  0.4600  0.6286 -0.1759
  447SOL     OW 1785   0.017   2.053   1.695  0.3328  0.2143 -0.2416
  447SOL    HW1 1786   0.074   1.999   1.747  0.1830 -0.9625  1.9000
  447SOL    HW2 1787  -0.053   1.999   1.654  0.0997 -1.2812 -0.2513
  447SOL     MW 1788   0.015   2.039   1.697  0.2823 -0.1382  0.0397
  448SOL     OW 1789   1.726   2.374   1.685 -0.3310 -0.7656  0.1398
  448SOL    HW1 1790   1.657   2.313   1.675 -0.8524 -0.7540 -0.1051
  448SOL    HW2 1791   1.691   2.461   1.671 -0.1440 -0.2432 -2.3500
  448SOL     MW 1792   1.712   2.378   1.682 -0.3751 -0.6951 -0.2210
  449SOL     OW 1793   0.764   2.840   0.397  0.1213 -0.1379  0.3244
  449SOL    HW1 1794   0.728   2.836   0.308  1.2307  1.3493 -0.0916
  449SOL    HW2 1795   0.685   2.865   0.444 -0.3986 -0.6578 -1.1200
  449SOL     MW 1796   0.749   2.843   0.392  0.1991 -0.0103  0.0790
  450SOL     OW 1797   1.191   2.428   0.660 -0.2889  0.0741 -0.0927
  450SOL    HW1 1798   1.207   2.398   0.748  0.5594  3.8714 -1.5561
  450SOL    HW2 1799   1.270   2.422   0.606  2.9740  0.2907  0.3780
  450SOL     MW 1800   1.204   2.423   0.664  0.2536  0.6037 -0.2237
  451SOL     OW 1801   0.528   2.002   1.628  0.1832  0.2700 -0.3152
  451SOL    HW1 1802   0.595   2.067   1.632 -2.3838 -1.4111 -1.0130
  451SOL    HW2 1803   0.512   1.984   1.531 -4.0956  0.3187 -0.6909
  451SOL     MW 1804   0.534   2.008   1.616 -0.7201  0.0546 -0.4568
  452SOL     OW 1805   0.257   2.720   0.014 -0.3469 -0.3972  0.0026
  452SOL    HW1 1806   0.347   2.737  -0.012 -0.8094  1.8264  0.5364
  452SOL    HW2 1807   0.193   2.773  -0.044 -0.4784 -1.2122 -1.0640
  452SOL     MW 1808   0.261   2.729   0.003 -0.4253 -0.2113 -0.0677
  453SOL     OW 1809   0.357   2.922   1.694 -0.0719 -0.6509  0.1821
  453SOL    HW1 1810   0.445   2.955   1.705  0.3991  0.4668 -3.0519
  453SOL    HW2 1811   0.325   2.918   1.600 -0.3241 -1.7502  0.4077
  453SOL     MW 1812   0.365   2.926   1.683 -0.0430 -0.6485 -0.2148
  454SOL     OW 1813   0.981   2.756   1.174  0.2952  0.3229  0.5021
  454SOL    HW1 1814   0.947   2.669   1.194  3.2993 -0.1274 -2.4182
  454SOL    HW2 1815   0.921   2.790   1.102  0.1089 -0.5132 -2.1595
  454SOL     MW 1816   0.968   2.749   1.167  0.6670  0.1532 -0.2344
  455SOL     OW 1817   1.574   2.915   0.215  0.3639  0.0731  0.0864
  455SOL    HW1 1818   1.649   2.892   0.275  0.3867  0.1291 -0.6424
  455SOL    HW2 1819   1.522   2.833   0.209  0.7490 -1.3014  1.7365
  455SOL     MW 1820   1.577   2.901   0.222  0.4177 -0.1008  0.2079
  456SOL     OW 1821   2.855   0.320   1.359 -0.6081  0.0132 -0.1583
  456SOL    HW1 1822   2.801   0.243   1.328 -0.2744  2.8234  1.6782
  456SOL    HW2 1823   2.933   0.340   1.306 -0.7903 -0.1906 -2.4129
  456SOL     MW 1824   2.858   0.313   1.348 -0.5881  0.3571 -0.2134
  457SOL     OW 1825   0.968   1.531   2.922 -0.5049  0.9159 -0.5845
  457SOL    HW1 1826   0.889   1.517   2.974 -1.3237 -3.4577 -0.2052
  457SOL    HW2 1827   1.023   1.464   2.971  0.0901  0.5118  1.7055
  457SOL     MW 1828   0.965   1.520   2.936 -0.5344  0.2855 -0.2323
  458SOL     OW 1829   1.454   1.384   0.551  0.1210  0.1722  0.2688
  458SOL    HW1 1830   1.374   1.410   0.601 -1.3717  0.8559 -0.3247
  458SOL    HW2 1831   1.424   1.320   0.487  2.2278 -0.1706  0.1021
  458SOL     MW 1832   1.440   1.379   0.549  0.2020  0.2172  0.1685
  459SOL     OW 1833   1.485   0.079   0.223  0.0543 -0.4855  0.2382
  459SOL    HW1 1834   1.495  -0.015   0.207  1.7131  0.2749  1.7465
  459SOL    HW2 1835   1.420   0.103   0.155  0.1226  0.0177 -1.2227
  459SOL     MW 1836   1.478   0.070   0.212  0.2821 -0.3188  0.2445
  460SOL     OW 1837   1.806   2.178   0.617  0.1190  0.8970 -0.3621
  460SOL    HW1 1838   1.721   2.158   0.660  0.5311 -1.5611 -1.1857
  460SOL    HW2 1839   1.849   2.094   0.590 -1.2947  0.0236 -2.8213
  460SOL     MW 1840   1.800   2.164   0.619 -0.0132  0.4574 -0.7952
  461SOL     OW 1841   0.433   2.413   0.603 -0.4955 -0.8818 -0.3868
  461SOL    HW1 1842   0.378   2.483   0.571 -1.2694 -0.4820  1.3561
  461SOL    HW2 1843   0.430   2.423   0.700  0.1189  0.5193 -1.9836
  461SOL     MW 1844   0.426   2.424   0.612 -0.5165 -0.6442 -0.3675
  462SOL     OW 1845   0.393   0.267   1.297  0.1106 -0.2726  0.5412
  462SOL    HW1 1846   0.445   0.216   1.240 -1.3215  1.8429  1.7532
  462SOL    HW2 1847   0.454   0.329   1.345  1.3942  3.4450 -1.4045
  462SOL     MW 1848   0.408   0.268   1.296  0.0910  0.4970  0.4444
  463SOL     OW 1849   0.891   0.027   0.669  0.3226  0.3722 -0.8297
  463SOL    HW1 1850   0.904   0.015   0.570  2.6219  0.9506 -2.0463
  463SOL    HW2 1851   0.795   0.034   0.684  0.6060  2.3434 -1.4841
  463SOL     MW 1852   0.880   0.027   0.658  0.6633  0.7086 -1.0766
  464SOL     OW 1853   0.846   3.053   2.268  0.6591 -0.0178  0.1291
  464SOL    HW1 1854   0.800   2.967   2.273 -1.7395  1.1935 -3.4742
  464SOL    HW2 1855   0.871   3.078   2.356  1.1917 -0.8893  2.9693
  464SOL     MW 1856   0.843   3.045   2.280  0.4129  0.0271  0.0284
  465SOL     OW 1857   0.672   0.297   0.492  0.1827  0.3333  0.1650
  465SOL    HW1 1858   0.659   0.257   0.580 -0.1564 -1.6453 -0.6683
  465SOL    HW2 1859   0.722   0.239   0.436 -0.3966  0.1711  1.8363
  465SOL     MW 1860   0.677   0.284   0.496  0.0615  0.0509  0.2755
  466SOL     OW 1861   1.077   1.991   0.696 -0.2521 -0.2183 -0.2759
  466SOL    HW1 1862   1.068   1.909   0.645  0.8766 -2.5968  0.3897
  466SOL    HW2 1863   1.052   2.068   0.650 -0.0328 -2.0875  0.6844
  466SOL     MW 1864   1.073   1.990   0.683 -0.0742 -0.7788 -0.0614
  467SOL     OW 1865   1.287   2.291   0.885  0.1344  0.4014  0.5154
  467SOL    HW1 1866   1.371   2.304   0.922  0.9444 -2.5175 -1.3300
  467SOL    HW2 1867   1.289   2.200   0.859 -0.6688  0.1208  1.3923
  467SOL     MW 1868   1.298   2.281   0.887  0.1353 -0.0208  0.3876
  468SOL     OW 1869   0.369   2.598   1.960  0.2238  0.1003 -0.0159
  468SOL    HW1 1870   0.382   2.542   1.881  1.8930 -1.3763  0.7974
  468SOL    HW2 1871   0.340   2.677   1.916 -0.3448 -0.1159 -0.1834
  468SOL     MW 1872   0.367   2.601   1.944  0.3690 -0.1231  0.0693
  469SOL     OW 1873   0.366   2.149   1.802  0.4397  0.5321 -0.0494
  469SOL    HW1 1874   0.286   2.113   1.845 -1.4689 -1.4289  1.1833
  469SOL    HW2 1875   0.408   2.081   1.747  0.2419  0.0049  0.0750
  469SOL     MW 1876   0.361   2.135   1.801  0.1618  0.2038  0.1296
  470SOL     OW 1877   3.024   2.532   0.106  0.0374  0.1587  0.0460
  470SOL    HW1 1878   2.938   2.494   0.135 -0.8218  1.8392  0.9286
  470SOL    HW2 1879   3.027   2.557   0.014  1.0775 -0.2576  0.5336
  470SOL     MW 1880   3.013   2.530   0.098  0.0613  0.3255  0.2268
  471SOL     OW 1881   1.178   2.740   1.416 -0.3284  0.1059  0.1567
  471SOL    HW1 1882   1.112   2.750   1.487  0.3557 -0.1575  1.3657
  471SOL    HW2 1883   1.150   2.805   1.350 -1.5919  0.9885 -1.2596
  471SOL     MW 1884   1.166   2.750   1.417 -0.4048  0.1876  0.1293
  472SOL     OW 1885   2.944   2.088   0.411  0.1053  0.4641  0.3639
  472SOL    HW1 1886   2.939   2.068   0.313  1.0509  0.9042 -0.9049
  472SOL    HW2 1887   2.916   2.004   0.455 -2.3921  1.1147  2.7526
  472SOL     MW 1888   2.940   2.074   0.404 -0.0995  0.6080  0.5117
  473SOL     OW 1889   0.826   2.516   1.299 -0.0937  0.0625 -0.2590
  473SOL    HW1 1890   0.891   2.443   1.291 -2.3741  1.2552 -2.5532
  473SOL    HW2 1891   0.841   2.546   1.391  1.8692  1.4919  0.8495
  473SOL     MW 1892   0.836   2.510   1.310 -0.1356  0.4085 -0.4154
  474SOL     OW 1893   0.772   2.185   1.740  0.5526 -0.6434 -0.0577
  474SOL    HW1 1894   0.845   2.231   1.791  4.0493  0.2915 -0.6478
  474SOL    HW2 1895   0.807   2.168   1.651 -0.8581 -0.2566  2.7990
  474SOL     MW 1896   0.787   2.188   1.735  0.8278 -0.4690  0.2413
  475SOL     OW 1897   1.611   0.010   1.446 -0.4197 -0.6445  0.3120
  475SOL    HW1 1898   1.542   0.024   1.384  1.5211  0.3525  1.0960
  475SOL    HW2 1899   1.617  -0.082   1.453  0.9364  1.7086  0.8319
  475SOL     MW 1900   1.603  -0.000   1.439  0.0153 -0.2025  0.4840
  476SOL     OW 1901   1.481   2.601   0.879 -0.4510 -0.0392 -0.1484
  476SOL    HW1 1902   1.459   2.643   0.956  1.2613  1.0184 -1.2084
  476SOL    HW2 1903   1.519   2.672   0.821  2.6141  1.8117  0.5950
  476SOL     MW 1904   1.483   2.616   0.881  0.1793  0.3445 -0.1902
  477SOL     OW 1905   0.762   2.554   0.638 -0.4672 -0.4146 -0.2247
  477SOL    HW1 1906   0.829   2.611   0.593 -0.4059 -0.4042  3.6256
  477SOL    HW2 1907   0.745   2.479   0.582  0.8922 -2.4706  0.7958
  477SOL     MW 1908   0.768   2.552   0.625 -0.2798 -0.6845  0.4179
  478SOL     OW 1909   0.095   2.694   0.907 -0.8173 -0.1312  0.2988
  478SOL    HW1 1910   0.146   2.769   0.888  1.8392 -1.9556  2.0107
  478SOL    HW2 1911   0.157   2.625   0.861  1.3947 -0.5926 -1.9664
  478SOL     MW 1912   0.110   2.695   0.899 -0.1749 -0.4328  0.2258
  479SOL     OW 1913   1.410   1.928   1.285 -0.2969  0.5047  0.6191
  479SOL    HW1 1914   1.375   1.981   1.357  0.8658 -1.0500 -1.0083
  479SOL    HW2 1915   1.488   1.888   1.311 -0.3655  0.2426 -1.7256
  479SOL     MW 1916   1.415   1.929   1.298 -0.1526  0.2650  0.0950
  480SOL     OW 1917   1.890   2.351   1.370  0.0845 -0.5970 -0.0290
  480SOL    HW1 1918   1.911   2.291   1.443  1.5046 -1.8090 -0.9151
  480SOL    HW2 1919   1.972   2.361   1.320  1.9623  1.6565 -2.2325
  480SOL     MW 1920   1.903   2.344   1.373  0.5197 -0.4596 -0.4366
  481SOL     OW 1921   1.215   0.015   1.149 -0.0971 -0.4779  0.0397
  481SOL    HW1 1922   1.251  -0.046   1.087 -1.2152  0.7522 -0.6096
  481SOL    HW2 1923   1.226   0.104   1.106 -1.9765 -0.5935 -2.5789
  481SOL     MW 1924   1.221   0.019   1.135 -0.4926 -0.3309 -0.3914
  482SOL     OW 1925   0.931   3.057   0.412 -0.3250 -0.1595  0.0399
  482SOL    HW1 1926   0.861   2.992   0.386 -0.6267 -1.0847 -3.7660
  482SOL    HW2 1927   0.905   3.145   0.380 -0.5316  0.6926  0.2069
  482SOL     MW 1928   0.918   3.060   0.404 -0.3921 -0.1691 -0.4402
  483SOL     OW 1929   0.367   2.933   0.484  0.3719 -0.1062 -0.8903
  483SOL    HW1 1930   0.286   2.937   0.433  3.1008  1.6972  0.1172
  483SOL    HW2 1931   0.342   2.976   0.568 -1.2114 -0.5499 -0.1771
  483SOL     MW 1932   0.353   2.939   0.488  0.5230  0.0732 -0.6633
  484SOL     OW 1933   1.665   1.828   1.374  0.5086 -0.3488  0.1714
  484SOL    HW1 1934   1.729   1.894   1.341 -0.0567  1.3487  0.5216
  484SOL    HW2 1935   1.657   1.851   1.467 -2.7020 -2.7376  1.7205
  484SOL     MW 1936   1.672   1.840   1.382  0.0104 -0.4400  0.4220
  485SOL     OW 1937   0.532   2.408   0.290  0.0853  0.7360  0.7081
  485SOL    HW1 1938   0.589   2.430   0.359 -1.4536 -0.8152 -2.6277
  485SOL    HW2 1939   0.446   2.428   0.324 -1.9202 -2.6157 -0.0603
  485SOL     MW 1940   0.529   2.413   0.303 -0.3824  0.0891  0.1666
  486SOL     OW 1941   0.136   2.422   1.384 -0.1750 -0.1687 -0.1432
  486SOL    HW1 1942   0.166   2.502   1.343 -0.3633 -0.4264  1.7135
  486SOL    HW2 1943   0.124   2.435   1.480 -2.8696 -2.1232  0.1358
  486SOL     MW 1944   0.138   2.434   1.391 -0.5554 -0.4606  0.1386
  487SOL     OW 1945   1.276   1.580   1.075  0.1913 -0.3708 -0.4281
  487SOL    HW1 1946   1.273   1.679   1.079  0.2902  1.8945  1.6410
  487SOL    HW2 1947   1.346   1.567   1.017 -4.0441  0.5113  0.1567
  487SOL     MW 1948   1.285   1.592   1.067 -0.3545  0.0445 -0.0779
  488SOL     OW 1949   1.655   1.859   0.541  0.2470  0.0324  0.0044
  488SOL    HW1 1950   1.741   1.906   0.549  0.5999  1.9805  2.3186
  488SOL    HW2 1951   1.589   1.924   0.518  1.5031 -1.0706 -1.8211
  488SOL     MW 1952   1.657   1.874   0.539  0.4593  0.1439  0.0689
  489SOL     OW 1953   0.700   0.775   0.591 -0.3025 -0.3409  0.1071
  489SOL    HW1 1954   0.752   0.697   0.583 -1.8219  0.3477  3.8371
  489SOL    HW2 1955   0.695   0.802   0.685 -1.4795 -1.7563 -0.0359
  489SOL     MW 1956   0.706   0.769   0.603 -0.6582 -0.4368  0.5804
  490SOL     OW 1957   1.382   2.096   0.453  0.0838 -0.0441 -0.2427
  490SOL    HW1 1958   1.423   2.173   0.419  3.0286 -0.7606  1.5810
  490SOL    HW2 1959   1.285   2.120   0.452 -0.1648  1.6520  0.0215
  490SOL     MW 1960   1.375   2.109   0.448  0.4395  0.0851  0.0328
  491SOL     OW 1961   1.196   3.004   0.471 -0.0482  0.0821  0.1631
  491SOL    HW1 1962   1.208   3.079   0.534  0.1083 -3.8345  2.1439
  491SOL    HW2 1963   1.106   3.009   0.428  1.5821  1.9271 -0.5423
  491SOL     MW 1964   1.186   3.015   0.474  0.1875 -0.1912  0.3314
  492SOL     OW 1965   1.522   2.126   0.697 -0.3282 -0.7725 -0.8015
  492SOL    HW1 1966   1.480   2.120   0.613 -0.8321 -0.2490 -2.5307
  492SOL    HW2 1967   1.457   2.081   0.752  3.2933 -2.3536  1.9376
  492SOL     MW 1968   1.508   2.120   0.693  0.0831 -0.9121 -0.6682
  493SOL     OW 1969   0.115   2.911   0.359  0.1062  0.3221 -0.3882
  493SOL    HW1 1970   0.103   2.967   0.436  0.3815 -0.7805 -0.3618
  493SOL    HW2 1971   0.130   2.966   0.286  0.9148 -0.3632  1.8240
  493SOL     MW 1972   0.115   2.926   0.360  0.2492  0.0862 -0.0928
  494SOL     OW 1973   0.400   2.424   1.737 -0.4122  0.4901  0.1750
  494SOL    HW1 1974   0.378   2.331   1.773 -4.4363 -0.0068  1.3687
  494SOL    HW2 1975   0.437   2.409   1.651  1.0346  0.1246 -0.2095
  494SOL     MW 1976   0.402   2.410   1.730 -0.7522  0.3763  0.2818
  495SOL     OW 1977   2.899   1.687   2.713  0.5158  0.2341 -0.2145
  495SOL    HW1 1978   2.874   1.776   2.752 -2.0790  0.2162  0.3447
  495SOL    HW2 1979   2.886   1.634   2.796  0.0720  0.2279  1.8980
  495SOL     MW 1980   2.894   1.692   2.729  0.1149  0.2309  0.1380
  496SOL     OW 1981   2.879   2.293   2.640  0.1100  0.4611  0.2726
  496SOL    HW1 1982   2.909   2.221   2.700 -3.2551 -0.4696  1.4950
  496SOL    HW2 1983   2.949   2.353   2.614 -1.4095  0.5066 -0.2769
  496SOL     MW 1984   2.892   2.291   2.645 -0.5345  0.3443  0.3614
  497SOL     OW 1985   1.552   2.275   2.578  0.2832  0.0454  0.1971
  497SOL    HW1 1986   1.522   2.238   2.493 -0.6033  1.9363  0.0146
  497SOL    HW2 1987   1.487   2.247   2.636  0.0915  1.0415 -0.4053
  497SOL     MW 1988   1.540   2.267   2.574  0.1410  0.4264  0.0936
  498SOL     OW 1989   1.554   2.705   2.310 -0.0076  0.3329  0.6502
  498SOL    HW1 1990   1.541   2.614   2.269 -0.5984 -0.9344 -3.9603
  498SOL    HW2 1991   1.620   2.696   2.380  3.0121  2.6968  2.4513
  498SOL     MW 1992   1.561   2.692   2.314  0.3129  0.4776  0.2795
  499SOL     OW 1993   0.895   0.162   0.030  0.0605 -0.2451  0.0579
  499SOL    HW1 1994   0.838   0.188   0.103 -0.1265  1.3105  0.9840
  499SOL    HW2 1995   0.887   0.061   0.034  0.6136  0.6969  0.2449
  499SOL     MW 1996   0.886   0.152   0.040  0.1088  0.0845  0.2048
  500SOL     OW 1997   1.026   2.434   2.793  0.6232 -0.1935 -0.3887
  500SOL    HW1 1998   1.078   2.434   2.875  0.2097  0.6304 -0.2041
  500SOL    HW2 1999   1.004   2.531   2.797 -1.1731 -0.9839  1.8304
  500SOL     MW 2000   1.030   2.446   2.805  0.3317 -0.1891 -0.0715
  501SOL     OW 2001   1.752   2.280   3.081 -0.4140  0.6017  0.0905
  501SOL    HW1 2002   1.714   2.363   3.108  1.1907 -0.9903  0.0779
  501SOL    HW2 2003   1.832   2.281   3.137 -3.7087  0.3399  1.6722
  501SOL     MW 2004   1.758   2.291   3.092 -0.6370  0.3571  0.2975
  502SOL     OW 2005   0.065   2.879   2.993 -0.5610 -0.1228  0.5089
  502SOL    HW1 2006   0.018   2.806   2.946  0.3198 -0.8831  1.3885
  502SOL    HW2 2007   0.090   2.942   2.928 -0.9187 -0.5648  0.4903
  502SOL     MW 2008   0.062   2.878   2.978 -0.4920 -0.2814  0.6225
  503SOL     OW 2009   1.176   2.604   2.008  0.2826 -0.0484 -0.4861
  503SOL    HW1 2010   1.257   2.619   1.957 -3.0801  1.2958 -0.8786
  503SOL    HW2 2011   1.104   2.585   1.946  0.3013  2.9741 -2.4901
  503SOL     MW 2012   1.177   2.603   1.993 -0.1586  0.5278 -0.8023
  504SOL     OW 2013   0.104   2.616   2.067 -0.0210 -0.5015  0.3065
  504SOL    HW1 2014   0.168   2.550   2.041  1.1062 -0.4864 -3.5893
  504SOL    HW2 2015   0.030   2.562   2.091 -1.7997 -0.7441 -0.1324
  504SOL     MW 2016   0.102   2.600   2.066 -0.1069 -0.5315 -0.2654
  505SOL     OW 2017   1.653   2.675   2.747 -0.1019 -0.4296  0.3073
  505SOL    HW1 2018   1.690   2.653   2.663  0.7637 -0.3632  1.3101
  505SOL    HW2 2019   1.607   2.759   2.734  0.7369  0.5081 -0.4986
  505SOL     MW 2020   1.652   2.684   2.734  0.1230 -0.2971  0.3333
  506SOL     OW 2021   1.625   0.020   2.868 -0.1380 -0.4042  0.4330
  506SOL    HW1 2022   1.647  -0.040   2.942  0.4853  1.5856 -0.0338
  506SOL    HW2 2023   1.660  -0.032   2.787  1.1877 -0.5724 -1.3608
  506SOL     MW 2024   1.632   0.006   2.867  0.1192 -0.1638  0.1347
  507SOL     OW 2025   0.947   2.687   2.843  0.3427  0.4431 -0.3620
  507SOL    HW1 2026   0.965   2.741   2.768 -1.7136  0.7082  1.8454
  507SOL    HW2 2027   0.861   2.648   2.823 -1.5607  3.6266  1.3897
  507SOL     MW 2028   0.938   2.689   2.830 -0.1797  0.8982  0.1604
  508SOL     OW 2029   1.244   2.111   2.520 -0.0963  0.1786 -0.1900
  508SOL    HW1 2030   1.275   2.105   2.616  2.3749  1.1973  0.1508
  508SOL    HW2 2031   1.178   2.182   2.527  4.2069 -0.7791 -0.8182
  508SOL     MW 2032   1.240   2.119   2.534  0.7975  0.1866 -0.2279
  509SOL     OW 2033   0.680   2.604   2.801 -0.3951  0.2298 -0.1818
  509SOL    HW1 2034   0.672   2.550   2.723  4.2680 -4.5905  0.7448
  509SOL    HW2 2035   0.622   2.682   2.789 -2.4600  1.6049  0.5047
  509SOL     MW 2036   0.671   2.607   2.789 -0.0523 -0.2247  0.0310
  510SOL     OW 2037   1.576   2.600   1.642 -0.7925  0.1012  0.2532
  510SOL    HW1 2038   1.585   2.689   1.596 -2.7282  2.5434 -1.9974
  510SOL    HW2 2039   1.522   2.619   1.724  1.9060 -1.7856 -2.0209
  510SOL     MW 2040   1.570   2.614   1.647 -0.6919  0.1745 -0.3438
  511SOL     OW 2041   0.428   2.608   2.467 -0.3760  0.1163  0.0885
  511SOL    HW1 2042   0.507   2.556   2.477  4.1947  0.4488 -0.0474
  511SOL    HW2 2043   0.425   2.633   2.372  1.4498 -1.6953  1.2533
  511SOL     MW 2044   0.438   2.604   2.456  0.4679 -0.0789  0.2242
  512SOL     OW 2045   0.978   2.037   2.833  0.1184  0.2549  0.0923
  512SOL    HW1 2046   0.912   2.078   2.895 -0.2514 -0.7631 -2.1383
  512SOL    HW2 2047   1.014   1.969   2.888  1.4312  2.1068 -0.9003
  512SOL     MW 2048   0.974   2.034   2.848  0.2428  0.3649 -0.3330
  513SOL     OW 2049   1.630   2.443   2.203  0.2258  0.0887 -0.1121
  513SOL    HW1 2050   1.706   2.487   2.168 -1.5592  0.9182 -0.5681
  513SOL    HW2 2051   1.677   2.405   2.279  1.7256 -0.3089  0.6952
  513SOL     MW 2052   1.646   2.444   2.208  0.1882  0.1457 -0.0657
  514SOL     OW 2053   0.251   2.470   2.629 -0.4015  0.4217 -0.1084
  514SOL    HW1 2054   0.309   2.532   2.595 -0.0961 -0.1886  1.3078
  514SOL    HW2 2055   0.273   2.440   2.716 -2.0544  1.2023 -3.2844
  514SOL     MW 2056   0.261   2.474   2.636 -0.5793  0.4441 -0.3406
  515SOL     OW 2057   1.098   2.021   1.975  0.3734 -0.7962  0.1400
  515SOL    HW1 2058   1.102   2.094   1.914  0.8321 -0.7884 -0.5788
  515SOL    HW2 2059   1.170   2.024   2.031 -1.1335  1.2096  1.0345
  515SOL     MW 2060   1.108   2.031   1.974  0.2351 -0.5306  0.1632
  516SOL     OW 2061   1.455   2.445   3.046 -0.3327  0.0567  0.6551
  516SOL    HW1 2062   1.465   2.424   2.952 -0.3886 -0.8543 -0.5619
  516SOL    HW2 2063   1.358   2.442   3.048 -1.5594  1.1563 -0.6103
  516SOL     MW 2064   1.443   2.442   3.034 -0.5019  0.0816  0.3276
  517SOL     OW 2065   0.558   2.415   2.255 -0.1492 -0.1309 -0.4841
  517SOL    HW1 2066   0.475   2.449   2.279  1.0622 -1.8051 -1.7785
  517SOL    HW2 2067   0.514   2.338   2.208 -2.8434  1.0706 -1.0015
  517SOL     MW 2068   0.541   2.410   2.252 -0.3449 -0.1933 -0.7232
  518SOL     OW 2069   1.852   0.116   0.022 -0.8772  0.3523 -0.5079
  518SOL    HW1 2070   1.804   0.172   0.086 -2.0394  1.7040 -2.7723
  518SOL    HW2 2071   1.804   0.032   0.031 -1.2618  0.5848  1.1073
  518SOL     MW 2072   1.839   0.112   0.032 -1.0813  0.5613 -0.5936
  519SOL     OW 2073   0.677   2.493   1.777  0.3512 -0.6166  0.3024
  519SOL    HW1 2074   0.701   2.399   1.763 -0.4334 -1.2063  0.7139
  519SOL    HW2 2075   0.582   2.493   1.802 -2.1883  1.3921 -2.2586
  519SOL     MW 2076   0.668   2.481   1.778 -0.0874 -0.4294  0.0188
  520SOL     OW 2077   1.181   2.174   2.959 -0.7164 -0.4833  0.2385
  520SOL    HW1 2078   1.116   2.125   2.905 -0.7945 -1.7696  1.5263
  520SOL    HW2 2079   1.198   2.121   3.039  0.7567 -0.2082 -0.9843
  520SOL     MW 2080   1.175   2.160   2.962 -0.5324 -0.6167  0.2471
  521SOL     OW 2081   1.749   2.000   2.188  0.0884 -0.2147 -0.2947
  521SOL    HW1 2082   1.785   1.989   2.105 -3.5508 -2.6205 -0.0297
  521SOL    HW2 2083   1.735   1.906   2.213  2.4751 -1.6467 -0.2575
  521SOL     MW 2084   1.752   1.986   2.180 -0.0769 -0.7210 -0.2548
  522SOL     OW 2085   2.940   2.513   2.264  0.7010 -0.1120  0.0883
  522SOL    HW1 2086   3.007   2.440   2.272  0.8405 -2.3114 -2.6575
  522SOL    HW2 2087   2.967   2.602   2.287 -1.7766 -2.6508  0.2824
  522SOL     MW 2088   2.953   2.515   2.269  0.3925 -0.7372 -0.2483
  523SOL     OW 2089   0.906   1.499   2.118  0.4272  0.4183 -0.1214
  523SOL    HW1 2090   0.868   1.564   2.058 -2.7401 -2.3857  2.5107
  523SOL    HW2 2091   0.929   1.424   2.067  0.1093  2.3796 -0.9726
  523SOL     MW 2092   0.904   1.498   2.103 -0.0326  0.3071  0.1136
  524SOL     OW 2093   0.592   2.389   2.979  0.0646  0.3592  0.4944
  524SOL    HW1 2094   0.627   2.450   2.917  0.7398 -0.7435  1.3822
  524SOL    HW2 2095   0.654   2.316   2.968  0.7551 -2.3420  1.3424
  524SOL     MW 2096   0.605   2.387   2.969  0.2448 -0.1427  0.7235
  525SOL     OW 2097   0.445   2.238   2.086  0.0740  0.1558  0.1836
  525SOL    HW1 2098   0.383   2.175   2.131 -0.1626  2.9018  0.1633
  525SOL    HW2 2099   0.491   2.190   2.026 -3.0322  2.2173  0.6227
  525SOL     MW 2100   0.443   2.224   2.084 -0.3670  0.7901  0.2388
  526SOL     OW 2101   0.682   2.107   1.997 -0.2378 -0.6647  0.1086
  526SOL    HW1 2102   0.731   2.136   1.913 -0.5366  0.2519  2.3269
  526SOL    HW2 2103   0.720   2.152   2.073  2.1959 -0.2778  1.3645
  526SOL     MW 2104   0.693   2.117   1.996  0.0439 -0.4927  0.5670
  527SOL     OW 2105   1.338   2.018   2.100  0.4754  0.4091 -0.0287
  527SOL    HW1 2106   1.371   2.001   2.187  0.7135 -3.6611  0.7695
  527SOL    HW2 2107   1.375   1.941   2.051  0.3684  0.4802 -0.4665
  527SOL     MW 2108   1.347   2.006   2.105  0.4927 -0.1186  0.0188
  528SOL     OW 2109   0.706   2.931   2.904  0.7293 -0.3161 -0.3114
  528SOL    HW1 2110   0.719   3.027   2.907 -0.1017  2.6896  0.0698
  528SOL    HW2 2111   0.641   2.933   2.829  0.4529  0.6555 -2.5683
  528SOL     MW 2112   0.699   2.944   2.895  0.5832  0.2087 -0.5589
  529SOL     OW 2113   1.034   2.288   1.848  0.3384  0.1405 -0.1065
  529SOL    HW1 2114   1.024   2.303   1.946  0.4106 -1.7241  1.7307
  529SOL    HW2 2115   1.089   2.358   1.823 -3.4851 -2.2156 -2.6761
  529SOL     MW 2116   1.040   2.299   1.858 -0.1566 -0.4164 -0.2031
  530SOL     OW 2117   1.175   2.437   3.049  1.0441  0.2544  0.5873
  530SOL    HW1 2118   1.121   2.470   3.121 -1.2548 -2.2944 -1.3664
  530SOL    HW2 2119   1.166   2.343   3.030  1.1789 -1.5199 -2.6524
  530SOL     MW 2120   1.166   2.429   3.056  0.7585 -0.3160 -0.0979
  531SOL     OW 2121   0.997   1.889   2.607 -0.1205 -0.3096 -0.0512
  531SOL    HW1 2122   0.992   1.952   2.678 -1.3327 -0.6230 -3.4244
  531SOL    HW2 2123   0.936   1.819   2.635  1.5651 -1.2582 -1.3624
  531SOL     MW 2124   0.989   1.888   2.620 -0.0581 -0.4761 -0.6693
  532SOL     OW 2125   1.719   0.333   2.884 -0.2348  0.3350  0.5349
  532SOL    HW1 2126   1.697   0.249   2.934  1.3463 -3.7053  1.7893
  532SOL    HW2 2127   1.822   0.338   2.896  4.6298  1.1417  0.7424
  532SOL     MW 2128   1.729   0.322   2.892  0.6156 -0.0916  0.7278
  533SOL     OW 2129   1.820   2.675   2.978 -0.3314 -0.4367 -0.2137
  533SOL    HW1 2130   1.764   2.637   3.047  0.1583  0.1951  1.9650
  533SOL    HW2 2131   1.749   2.711   2.915 -0.9356 -0.3922 -3.3394
  533SOL     MW 2132   1.803   2.675   2.979 -0.3465 -0.3475 -0.3386
  534SOL     OW 2133   1.795   2.342   2.454  0.2138  0.2472  0.1389
  534SOL    HW1 2134   1.723   2.296   2.505 -0.9640 -0.0987  3.0838
  534SOL    HW2 2135   1.871   2.303   2.485 -0.8720  0.4439 -2.2885
  534SOL     MW 2136   1.796   2.331   2.465 -0.0849  0.2275  0.2072
  535SOL     OW 2137   1.824   2.357   1.950  0.1955 -0.0846 -1.0666
  535SOL    HW1 2138   1.797   2.385   1.861 -1.9190 -1.7122  0.8260
  535SOL    HW2 2139   1.919   2.366   1.963 -2.4713  1.3868  0.0581
  535SOL     MW 2140   1.833   2.362   1.940 -0.4353 -0.1052 -0.6685
  536SOL     OW 2141   0.443   1.863   2.018 -0.0672  0.7929  0.2296
  536SOL    HW1 2142   0.430   1.819   1.935 -0.1863  0.2538  0.9857
  536SOL    HW2 2143   0.503   1.934   2.009  0.0667 -0.5018 -3.2401
  536SOL     MW 2144   0.449   1.867   2.006 -0.0652  0.5509 -0.1284
  537SOL     OW 2145   1.067   0.153   2.874 -0.5005 -0.3173 -0.2101
  537SOL    HW1 2146   1.023   0.100   2.934 -0.0354 -0.9062  0.5418
  537SOL    HW2 2147   1.044   0.240   2.906 -0.1844 -1.3317 -0.1637
  537SOL     MW 2148   1.058   0.157   2.886 -0.3975 -0.5288 -0.1048
  538SOL     OW 2149   1.369   0.056   2.963  0.4044  0.3642  0.0448
  538SOL    HW1 2150   1.305   0.122   2.942 -0.1420 -0.1177 -1.5381
  538SOL    HW2 2151   1.455   0.086   2.924  0.1753  1.3458 -1.7123
  538SOL     MW 2152   1.372   0.068   2.955  0.3021  0.4301 -0.3959
  539SOL     OW 2153   0.766   2.765   2.562 -0.1025  0.2978  0.1935
  539SOL    HW1 2154   0.865   2.792   2.566  1.1519  0.0609  0.9852
  539SOL    HW2 2155   0.767   2.669   2.567  1.0045  2.1982  0.0082
  539SOL     MW 2156   0.779   2.756   2.563  0.2091  0.5173  0.2735
  540SOL     OW 2157   0.334   2.355   2.867  0.2325  0.8726 -0.6768
  540SOL    HW1 2158   0.424   2.376   2.905  1.7825 -1.9116  2.2987
  540SOL    HW2 2159   0.328   2.261   2.872 -1.2963  0.1889 -1.2061
  540SOL     MW 2160   0.345   2.345   2.873  0.2353  0.4151 -0.3540
  541SOL     OW 2161   0.171   2.930   2.197  0.1813  0.1802  0.2813
  541SOL    HW1 2162   0.197   2.857   2.140  2.6699  1.9326  0.0157
  541SOL    HW2 2163   0.207   2.911   2.284 -2.6673 -1.3761  0.9323
  541SOL     MW 2164   0.179   2.918   2.201  0.1338  0.2061  0.3321
  542SOL     OW 2165   1.033   2.281   2.572 -0.3660 -0.6164 -0.0011
  542SOL    HW1 2166   0.984   2.211   2.603 -2.6319  2.1595  1.2913
  542SOL    HW2 2167   1.027   2.346   2.647 -0.1169 -0.0620 -0.6969
  542SOL     MW 2168   1.026   2.280   2.586 -0.6321 -0.1770  0.0776
  543SOL     OW 2169   1.443   2.487   2.748  0.3224 -0.1305  0.0155
  543SOL    HW1 2170   1.489   2.423   2.695  1.3667  1.9489  1.5843
  543SOL    HW2 2171   1.512   2.558   2.744  2.0647  1.1734 -1.2206
  543SOL     MW 2172   1.458   2.488   2.740  0.6900  0.3159  0.0594
  544SOL     OW 2173   0.622   0.244   2.675  0.8147  0.1480 -0.0214
  544SOL    HW1 2174   0.525   0.248   2.696  3.7733  1.2146 -2.2192
  544SOL    HW2 2175   0.625   0.156   2.634  0.3338  0.9251 -0.9005
  544SOL     MW 2176   0.609   0.233   2.672  1.1416  0.3913 -0.4273
  545SOL     OW 2177   1.545   2.193   2.329  0.6609 -0.5993  0.2910
  545SOL    HW1 2178   1.482   2.239   2.272 -0.1847  0.7767  0.9599
  545SOL    HW2 2179   1.623   2.166   2.278 -0.5308 -1.0726 -0.0224
  545SOL     MW 2180   1.547   2.195   2.315  0.3921 -0.4802  0.3379
  546SOL     OW 2181   2.949   2.038   0.137 -0.0335 -0.4086 -0.2586
  546SOL    HW1 2182   2.963   2.122   0.077 -0.1575 -1.4438  0.7242
  546SOL    HW2 2183   3.030   1.992   0.106  0.7810 -1.1911 -1.1543
  546SOL     MW 2184   2.962   2.043   0.125  0.0576 -0.6484 -0.2471
  547SOL     OW 2185   0.265   2.968   0.136  0.3086  0.3442  0.8158
  547SOL    HW1 2186   0.278   3.008   0.043 -1.3572 -0.3720 -2.0576
  547SOL    HW2 2187   0.254   2.875   0.119 -2.3812 -1.6087  0.6141
  547SOL     MW 2188   0.265   2.961   0.122 -0.2661 -0.0080  0.4101
  548SOL     OW 2189   0.274   2.559   0.248  0.3410  0.1852 -0.4452
  548SOL    HW1 2190   0.289   2.618   0.174 -2.3845  0.5788 -1.0779
  548SOL    HW2 2191   0.231   2.480   0.206 -3.0216  0.1893  2.9362
  548SOL     MW 2192   0.270   2.556   0.233 -0.4623  0.2377 -0.0825
  549SOL     OW 2193   0.806   1.904   2.116  0.2683  0.2421  0.3981
  549SOL    HW1 2194   0.757   1.977   2.092  1.6813  1.4518  0.9145
  549SOL    HW2 2195   0.825   1.909   2.209 -0.3427  3.4335 -1.1493
  549SOL     MW 2196   0.802   1.914   2.125  0.3741  0.8228  0.2621
  550SOL     OW 2197   1.790   1.719   2.525 -0.2033 -0.5205  0.2095
  550SOL    HW1 2198   1.815   1.732   2.431  0.0199 -1.0724 -2.4255
  550SOL    HW2 2199   1.782   1.796   2.584  0.1089  0.5521  1.4865
  550SOL     MW 2200   1.792   1.731   2.521 -0.1327 -0.4518  0.0303
  551SOL     OW 2201   0.877   2.294   0.226 -0.4298 -0.6089  0.3916
  551SOL    HW1 2202   0.968   2.316   0.217 -0.0108 -0.2965  2.2009
  551SOL    HW2 2203   0.857   2.209   0.189  0.2404  0.5172 -0.0795
  551SOL     MW 2204   0.887   2.285   0.220 -0.2861 -0.4191  0.5681
  552SOL     OW 2205   1.754   1.740   2.255  0.0565  0.4119  0.0573
  552SOL    HW1 2206   1.675   1.713   2.288  0.5109 -0.8162 -1.7371
  552SOL    HW2 2207   1.772   1.692   2.168  1.5527  0.3839  0.1662
  552SOL     MW 2208   1.746   1.730   2.248  0.3139  0.2462 -0.1651
  553SOL     OW 2209   1.188   2.320   1.469  0.0792 -0.3569 -0.0865
  553SOL    HW1 2210   1.212   2.229   1.485 -0.7924  0.1514 -2.2119
  553SOL    HW2 2211   1.255   2.382   1.449 -0.6994  1.5083  1.4335
  553SOL     MW 2212   1.200   2.316   1.468 -0.1386 -0.0437 -0.1664
  554SOL     OW 2213   0.550   2.909   2.674 -0.0689  0.2704 -0.1311
  554SOL    HW1 2214   0.534   2.983   2.613  1.6310  0.7950 -1.8625
  554SOL    HW2 2215   0.622   2.868   2.620 -2.0962 -0.0731  0.0017
  554SOL     MW 2216   0.558   2.913   2.659 -0.1121  0.2943 -0.3420
  555SOL     OW 2217   0.626   2.444   2.569 -0.0886  0.0713  0.1285
  555SOL    HW1 2218   0.586   2.358   2.584  1.4561  0.2051 -0.3509
  555SOL    HW2 2219   0.708   2.421   2.514 -0.3333  2.3904 -0.7044
  555SOL     MW 2220   0.631   2.429   2.564  0.0829  0.3950 -0.0447
  556SOL     OW 2221   0.943   1.774   0.148  0.3167  0.1990  0.6166
  556SOL    HW1 2222   0.977   1.779   0.060 -1.9656  0.3258  1.0922
  556SOL    HW2 2223   1.018   1.806   0.199  0.1862  0.0416  0.5496
  556SOL     MW 2224   0.957   1.779   0.143 -0.0017  0.1949  0.6705
  557SOL     OW 2225   0.967   2.693   0.494  0.0593 -0.2179 -0.0584
  557SOL    HW1 2226   1.020   2.642   0.436  1.6123  0.3402  1.1458
  557SOL    HW2 2227   0.895   2.735   0.447  0.6326  0.0160  1.9217
  557SOL     MW 2228   0.965   2.692   0.481  0.3398 -0.1134  0.3617
  558SOL     OW 2229   0.265   2.141   0.009 -0.5123  0.0026 -0.6637
  558SOL    HW1 2230   0.207   2.065   0.034 -2.3541 -1.2234 -1.2448
  558SOL    HW2 2231   0.215   2.218   0.039 -1.1727  1.2910  0.7869
  558SOL     MW 2232   0.251   2.141   0.016 -0.8425  0.0108 -0.5490
  559SOL     OW 2233   1.070   2.314   2.119 -0.8478 -0.1927  0.1657
  559SOL    HW1 2234   1.112   2.356   2.189 -0.3566 -0.7924 -0.2602
  559SOL    HW2 2235   1.073   2.223   2.141  2.0929 -1.6161  2.2842
  559SOL     MW 2236   1.076   2.307   2.131 -0.3950 -0.4596  0.3890
  560SOL     OW 2237   1.919   2.844   0.060 -0.4160  0.5312  0.4658
  560SOL    HW1 2238   1.991   2.879   0.009  1.8204  1.3767  0.9685
  560SOL    HW2 2239   1.889   2.781  -0.004  1.4478 -0.9419  0.6909
  560SOL     MW 2240   1.925   2.840   0.045  0.1250  0.4484  0.5619
  561SOL     OW 2241   0.447   2.150   0.214 -0.3528  0.6860  0.0397
  561SOL    HW1 2242   0.388   2.154   0.141 -3.9778  0.5539 -0.2354
  561SOL    HW2 2243   0.504   2.232   0.224  2.1835 -0.7961  4.7760
  561SOL     MW 2244   0.447   2.162   0.206 -0.4965  0.4730  0.6283
  562SOL     OW 2245   0.809   2.188   2.230 -0.6652  0.3033  0.0129
  562SOL    HW1 2246   0.818   2.273   2.195 -0.4515 -0.2101 -1.2431
  562SOL    HW2 2247   0.896   2.156   2.249 -1.8991  2.0422 -0.0784
  562SOL     MW 2248   0.822   2.195   2.228 -0.7998  0.4650 -0.1648
  563SOL     OW 2249   1.127   0.315   0.586  0.3064  0.4725 -0.0976
  563SOL    HW1 2250   1.080   0.289   0.505  1.3250 -1.6576 -0.2209
  563SOL    HW2 2251   1.192   0.246   0.611 -0.1002 -1.1522 -0.1986
  563SOL     MW 2252   1.130   0.302   0.579  0.3871 -0.0229 -0.1272
  564SOL     OW 2253   1.029   2.603   2.265 -0.1606  0.5138 -0.8921
  564SOL    HW1 2254   1.070   2.625   2.178 -0.6091  1.0108  1.4848
  564SOL    HW2 2255   1.096   2.627   2.333 -1.8328  1.5385  0.6774
  564SOL     MW 2256   1.043   2.609   2.263 -0.4404  0.7146 -0.3714
  565SOL     OW 2257   2.905   2.689   2.650  0.3041 -0.3638  0.4308
  565SOL    HW1 2258   2.955   2.750   2.593  1.7397  1.4010 -0.1500
  565SOL    HW2 2259   2.838   2.664   2.584  0.4640  2.3754  0.2774
  565SOL     MW 2260   2.903   2.694   2.634  0.5146  0.2305  0.3339
  566SOL     OW 2261   2.143   1.868   2.408  0.3135  0.0906 -0.9028
  566SOL    HW1 2262   2.181   1.789   2.370  2.6467  1.2755 -1.1753
  566SOL    HW2 2263   2.199   1.943   2.384 -3.7661  0.0232  2.1750
  566SOL     MW 2264   2.156   1.867   2.400  0.0831  0.2381 -0.5327
  567SOL     OW 2265   1.178   2.957   2.962 -0.8168 -0.7305 -0.0436
  567SOL    HW1 2266   1.249   3.021   2.993  3.2032 -0.5668  2.1522
  567SOL    HW2 2267   1.220   2.871   2.941  3.0115 -1.6031  0.7376
  567SOL     MW 2268   1.193   2.954   2.963  0.2187 -0.8241  0.3492
  568SOL     OW 2269   1.633   2.111   2.887 -0.1659  0.4627 -0.0377
  568SOL    HW1 2270   1.697   2.172   2.922 -0.5414 -1.0149  0.8979
  568SOL    HW2 2271   1.680   2.046   2.823 -0.7705 -2.9196  1.9919
  568SOL     MW 2272   1.648   2.111   2.883 -0.2952 -0.1785  0.3535
  569SOL     OW 2273   0.201   2.241   2.474 -0.4989 -0.2186  0.1603
  569SOL    HW1 2274   0.124   2.253   2.407  0.8240 -1.5141 -1.5220
  569SOL    HW2 2275   0.206   2.333   2.507 -1.5275  1.1870 -0.1115
  569SOL     MW 2276   0.191   2.255   2.469 -0.4601 -0.2041 -0.0975
  570SOL     OW 2277   1.465   0.391   0.469 -0.3475 -0.2315 -0.2692
  570SOL    HW1 2278   1.380   0.388   0.509  1.5599 -2.6875 -0.7379
  570SOL    HW2 2279   1.513   0.398   0.554 -2.4450 -0.5267  2.3400
  570SOL     MW 2280   1.460   0.392   0.486 -0.3726 -0.5945  0.0132
  571SOL     OW 2281   1.475   2.409   1.981 -0.1498  0.3419 -0.2043
  571SOL    HW1 2282   1.527   2.403   2.059 -0.3238 -0.7609  1.9423
  571SOL    HW2 2283   1.473   2.312   1.957  1.4515 -1.8614 -1.5600
  571SOL     MW 2284   1.482   2.396   1.988  0.0385 -0.0943 -0.0999
  572SOL     OW 2285   0.915   2.598   0.033  0.1548  0.6346  0.0517
  572SOL    HW1 2286   0.947   2.621  -0.056  0.4925  1.3407 -0.5977
  572SOL    HW2 2287   0.821   2.615   0.037 -1.4309 -0.2124  0.7605
  572SOL     MW 2288   0.907   2.603   0.022 -0.0099  0.6160  0.0595
  573SOL     OW 2289   1.185   2.366   0.268 -0.0792 -0.2232 -0.3086
  573SOL    HW1 2290   1.265   2.346   0.220 -2.1223  0.7827  3.7568
  573SOL    HW2 2291   1.179   2.467   0.264 -0.8831  2.0168  0.8758
  573SOL     MW 2292   1.195   2.377   0.261 -0.4548  0.2051  0.3841
  574SOL     OW 2293   1.128   2.632   0.248  0.6093 -0.3268  0.1343
  574SOL    HW1 2294   1.183   2.708   0.265 -0.1567 -2.5214 -2.6547
  574SOL    HW2 2295   1.065   2.658   0.188  3.4217  0.2074  2.3592
  574SOL     MW 2296   1.127   2.646   0.243  0.8793 -0.5459  0.0599
  575SOL     OW 2297   0.030   2.297   1.798 -0.0110 -0.4703 -0.0118
  575SOL    HW1 2298   0.023   2.211   1.754  0.1512 -0.0555  0.8287
  575SOL    HW2 2299   0.073   2.353   1.738 -0.9823 -2.5509 -1.3274
  575SOL     MW 2300   0.035   2.293   1.784 -0.1178 -0.6901 -0.0745
  576SOL     OW 2301   2.863   1.805   2.053 -0.3952  0.2483  0.3209
  576SOL    HW1 2302   2.868   1.879   1.986 -0.7507  0.9586 -0.0607
  576SOL    HW2 2303   2.777   1.767   2.058 -0.3672  1.0772 -0.5476
  576SOL     MW 2304   2.852   1.810   2.045 -0.4384  0.4514  0.1560
  577SOL     OW 2305   2.104   0.212   0.067  0.0701 -0.1414  0.1289
  577SOL    HW1 2306   2.026   0.219   0.008 -2.1728 -1.7322 -0.8994
  577SOL    HW2 2307   2.059   0.180   0.150  3.4922 -1.0684 -1.3967
  577SOL     MW 2308   2.088   0.209   0.070  0.2257 -0.4736 -0.2081
  578SOL     OW 2309   1.904   2.035   2.425 -0.3009  0.2372 -0.5609
  578SOL    HW1 2310   1.850   2.011   2.347 -2.1532 -1.9051 -0.1816
  578SOL    HW2 2311   1.987   1.989   2.416 -0.5051 -1.0353  0.5526
  578SOL     MW 2312   1.908   2.026   2.414 -0.5723 -0.2133 -0.3640
  579SOL     OW 2313   0.884   2.480   2.466  0.0945 -0.2785 -0.5111
  579SOL    HW1 2314   0.954   2.412   2.494  0.3585 -2.4958 -0.5582
  579SOL    HW2 2315   0.933   2.523   2.393  0.6795 -1.3393 -0.7766
  579SOL     MW 2316   0.900   2.477   2.460  0.2065 -0.7110 -0.5524
  580SOL     OW 2317   0.922   2.992   3.070  0.3210 -0.3672 -0.8873
  580SOL    HW1 2318   1.018   2.976   3.057 -0.6756 -1.7099 -3.8556
  580SOL    HW2 2319   0.879   2.941   2.996  0.1488 -1.5519  0.7598
  580SOL     MW 2320   0.929   2.983   3.059  0.1668 -0.7006 -1.0616
  581SOL     OW 2321   1.194   2.467   1.703  0.6496  0.3068  0.0499
  581SOL    HW1 2322   1.256   2.527   1.677 -2.8223 -0.7543 -3.0541
  581SOL    HW2 2323   1.182   2.418   1.620  0.0073  3.0168  0.5297
  581SOL     MW 2324   1.200   2.469   1.689  0.1067  0.5244 -0.2963
  582SOL     OW 2325   3.087   2.872   2.534 -0.0420 -0.1857 -0.3053
  582SOL    HW1 2326   3.050   2.945   2.580  1.1954 -1.5729 -0.6744
  582SOL    HW2 2327   3.176   2.903   2.519  2.0897 -1.4099 -1.9380
  582SOL     MW 2328   3.094   2.886   2.538  0.4026 -0.5302 -0.5694
  583SOL     OW 2329   2.028   2.362   2.703  0.3495 -0.0260 -0.3648
  583SOL    HW1 2330   2.098   2.370   2.634  1.7700 -1.1551 -0.3424
  583SOL    HW2 2331   1.990   2.273   2.688  0.4341 -0.9140  0.2546
  583SOL     MW 2332   2.032   2.351   2.692  0.5481 -0.2922 -0.2801
  584SOL     OW 2333   0.210   1.837   2.178  0.7172 -0.7400  0.8212
  584SOL    HW1 2334   0.295   1.819   2.149 -1.1718 -1.0545 -0.4677
  584SOL    HW2 2335   0.212   1.932   2.203 -0.5351  0.0953  0.2504
  584SOL     MW 2336   0.222   1.847   2.178  0.3027 -0.6713  0.5758
  585SOL     OW 2337   1.449   2.649   0.148  0.5163  0.0229  0.1532
  585SOL    HW1 2338   1.424   2.608   0.061 -0.6143  0.7944  0.1838
  585SOL    HW2 2339   1.372   2.671   0.206 -1.5265  2.5022  1.1768
  585SOL     MW 2340   1.435   2.646   0.144  0.0976  0.4518  0.2923
  586SOL     OW 2341   1.390   2.825   2.513 -0.4515  0.4778  0.2367
  586SOL    HW1 2342   1.439   2.823   2.434  0.0432 -1.4289 -0.3322
  586SOL    HW2 2343   1.377   2.918   2.545 -0.7715  2.9335 -0.0691
  586SOL     MW 2344   1.394   2.837   2.507 -0.4284  0.5503  0.1213
  587SOL     OW 2345   1.307   1.563   2.175  0.0911 -0.2696 -0.2242
  587SOL    HW1 2346   1.280   1.481   2.220 -0.5469 -0.4890  0.3534
  587SOL    HW2 2347   1.365   1.536   2.103  0.0753  0.5114 -2.6881
  587SOL     MW 2348   1.311   1.549   2.171  0.0049 -0.1955 -0.4731
  588SOL     OW 2349   1.374   2.133   2.772  0.0417 -0.3234 -0.2606
  588SOL    HW1 2350   1.467   2.099   2.801 -2.8716  0.6658  0.5686
  588SOL    HW2 2351   1.312   2.121   2.845 -0.9641 -3.3019 -0.2564
  588SOL     MW 2352   1.378   2.127   2.786 -0.4754 -0.5859 -0.1507
  589SOL     OW 2353   1.270   2.053   0.072 -0.4303 -0.3423  0.7567
  589SOL    HW1 2354   1.323   2.131   0.096 -0.9909  1.0466 -1.0411
  589SOL    HW2 2355   1.265   1.991   0.144 -0.4666  1.7284  1.2624
  589SOL     MW 2356   1.276   2.055   0.085 -0.5091  0.1142  0.5862
  590SOL     OW 2357   0.418   2.729   2.219 -0.1695  0.8934 -0.3685
  590SOL    HW1 2358   0.404   2.684   2.137  2.0504  3.4720  0.7821
  590SOL    HW2 2359   0.498   2.785   2.227  0.4223 -1.4507 -0.8481
  590SOL     MW 2360   0.427   2.731   2.209  0.2015  0.9243 -0.2800
  591SOL     OW 2361   2.289   0.703   0.015  0.0377 -0.3218  0.1218
  591SOL    HW1 2362   2.237   0.740  -0.057 -0.6019  1.3555 -1.3122
  591SOL    HW2 2363   2.386   0.702  -0.030  2.5957  0.4094 -0.3697
  591SOL     MW 2364   2.295   0.708  -0.001  0.2909 -0.0040 -0.1322
  592SOL     OW 2365   1.798   2.967   0.844  0.1902 -0.6345  0.3090
  592SOL    HW1 2366   1.784   3.038   0.781  1.5744  1.3366 -0.9558
  592SOL    HW2 2367   1.856   2.899   0.800 -1.9185 -0.5594 -3.2585
  592SOL     MW 2368   1.804   2.968   0.830  0.0946 -0.3645 -0.3286
  593SOL     OW 2369   1.944   0.707   0.878 -0.3449 -0.0802 -0.1712
  593SOL    HW1 2370   1.859   0.672   0.849 -2.3593  0.7959  0.2581
  593SOL    HW2 2371   1.993   0.630   0.908  0.6471  0.5476  1.5819
  593SOL     MW 2372   1.939   0.692   0.878 -0.4798  0.1182  0.1167
  594SOL     OW 2373   2.829   1.153   1.340 -0.2396 -0.3305 -0.1084
  594SOL    HW1 2374   2.922   1.159   1.360  0.1462  1.1379  1.1701
  594SOL    HW2 2375   2.807   1.096   1.262  1.3733 -1.4001 -0.6251
  594SOL     MW 2376   2.838   1.146   1.332  0.0241 -0.2779 -0.0079
  595SOL     OW 2377   0.471   0.982   0.808 -0.1179  0.0711 -0.0934
  595SOL    HW1 2378   0.495   1.044   0.735 -3.2439  3.5236 -2.1404
  595SOL    HW2 2379   0.462   1.044   0.878 -1.5104  3.2188  1.0200
  595SOL     MW 2380   0.473   0.999   0.808 -0.7141  0.9419 -0.2166
  596SOL     OW 2381   2.458   1.337   0.563 -0.6546 -0.1796  0.4439
  596SOL    HW1 2382   2.533   1.391   0.530  0.4104  1.4052 -1.5646
  596SOL    HW2 2383   2.510   1.292   0.630 -1.1443  2.2759  3.5335
  596SOL     MW 2384   2.475   1.338   0.568 -0.5787  0.3535  0.5866
  597SOL     OW 2385   2.176   0.716   1.596 -0.1289  0.2497  0.1789
  597SOL    HW1 2386   2.210   0.653   1.664  2.3374  0.9420  0.1108
  597SOL    HW2 2387   2.106   0.656   1.552 -1.6504 -0.8434  1.8093
  597SOL     MW 2388   2.171   0.700   1.599 -0.0042  0.1968  0.3850
  598SOL     OW 2389   2.591   1.002   2.858 -0.2141  0.4065  0.3822
  598SOL    HW1 2390   2.595   0.993   2.761 -0.0350 -0.1614  2.2032
  598SOL    HW2 2391   2.675   1.045   2.868  0.2522  0.1606 -1.3683
  598SOL     MW 2392   2.603   1.007   2.847 -0.1290  0.2991  0.3915
  599SOL     OW 2393   2.971   0.447   2.046  0.0675 -0.1170 -0.2198
  599SOL    HW1 2394   2.957   0.454   2.138  2.2383 -0.8745  0.4090
  599SOL    HW2 2395   2.998   0.540   2.017  1.0383 -0.3865  0.0793
  599SOL     MW 2396   2.973   0.460   2.054  0.4820 -0.2525 -0.0973
  600SOL     OW 2397   1.917   1.627   0.863 -0.3953 -0.6642 -0.1871
  600SOL    HW1 2398   1.955   1.660   0.949 -1.7686 -3.3614  1.9874
  600SOL    HW2 2399   1.826   1.663   0.846 -0.0357 -1.7286  0.2605
  600SOL     MW 2400   1.910   1.636   0.872 -0.5290 -1.1605  0.1589
  601SOL     OW 2401   2.536   0.795   0.829 -0.2800 -0.9829 -0.2181
  601SOL    HW1 2402   2.503   0.817   0.915 -0.3354  3.3915  3.2427
  601SOL    HW2 2403   2.473   0.736   0.789  0.3937 -1.0989 -0.1033
  601SOL     MW 2404   2.523   0.790   0.835 -0.1984 -0.4211  0.2537
  602SOL     OW 2405   2.359   1.910   0.864 -0.0262 -0.4184  0.5208
  602SOL    HW1 2406   2.329   1.816   0.869 -0.1584 -0.4624 -1.8421
  602SOL    HW2 2407   2.293   1.953   0.812  0.7385 -0.1598 -0.0025
  602SOL     MW 2408   2.346   1.903   0.858  0.0573 -0.3901  0.1400
  603SOL     OW 2409   3.069   1.392   1.801  0.1820 -0.3386 -0.1201
  603SOL    HW1 2410   3.145   1.414   1.857  0.9727 -0.4797  0.0641
  603SOL    HW2 2411   3.079   1.299   1.808  0.7196 -1.3627  0.3458
  603SOL     MW 2412   3.080   1.383   1.809  0.3572 -0.4923 -0.0343
  604SOL     OW 2413   2.175   1.574   0.466  0.1459  0.1959 -0.3679
  604SOL    HW1 2414   2.179   1.492   0.518 -0.5255  0.4319  0.2124
  604SOL    HW2 2415   2.099   1.627   0.506 -0.9062 -0.4483 -0.6420
  604SOL     MW 2416   2.166   1.570   0.478 -0.0815  0.1420 -0.3275
  605SOL     OW 2417   2.617   1.535   0.829  0.2600 -0.6969  0.1020
  605SOL    HW1 2418   2.591   1.626   0.797 -1.5485  2.7938  0.8613
  605SOL    HW2 2419   2.559   1.475   0.779 -0.4608  1.3086 -0.7851
  605SOL     MW 2420   2.606   1.539   0.818 -0.0737  0.0283  0.0851
  606SOL     OW 2421   2.528   1.825   1.952 -0.3642 -0.4389  1.0141
  606SOL    HW1 2422   2.435   1.813   1.937  0.0465 -1.3475 -0.8133
  606SOL    HW2 2423   2.559   1.744   1.911 -0.7084  0.9596 -1.0592
  606SOL     MW 2424   2.520   1.813   1.945 -0.3554 -0.3743  0.4995
  607SOL     OW 2425   2.396   1.071   3.042  0.1418  0.6444 -0.2821
  607SOL    HW1 2426   2.452   1.023   2.982  0.7281  0.3904 -0.5171
  607SOL    HW2 2427   2.423   1.036   3.133  0.1983  1.6278  1.7775
  607SOL     MW 2428   2.407   1.060   3.046  0.2266  0.7406 -0.0414
  608SOL     OW 2429   1.880   0.280   0.627 -0.2704 -0.0337 -0.4731
  608SOL    HW1 2430   1.873   0.330   0.543 -0.4639 -1.0317  2.1531
  608SOL    HW2 2431   1.831   0.194   0.624 -0.7032 -0.9575 -0.1845
  608SOL     MW 2432   1.872   0.275   0.616 -0.3530 -0.2873 -0.0885
  609SOL     OW 2433   2.032   2.018   3.040  0.0325 -0.2719  0.0829
  609SOL    HW1 2434   1.961   1.955   3.027  1.3244 -0.3731 -0.7997
  609SOL    HW2 2435   2.093   1.986   3.107 -1.7742 -1.0332 -3.0458
  609SOL     MW 2436   2.031   2.006   3.047 -0.0354 -0.3857 -0.4464
  610SOL     OW 2437   1.772   1.007   1.297 -0.2490  0.1348  0.3586
  610SOL    HW1 2438   1.809   0.924   1.267 -1.7905  1.4211  2.1982
  610SOL    HW2 2439   1.680   0.984   1.281  1.8410  1.1093 -1.3637
  610SOL     MW 2440   1.765   0.993   1.291 -0.1766  0.4331  0.3741
  611SOL     OW 2441   2.510   1.778   0.681 -0.0625 -0.5043 -0.0899
  611SOL    HW1 2442   2.471   1.852   0.727  1.7142 -0.0669  1.4613
  611SOL    HW2 2443   2.546   1.836   0.611 -0.5118  1.1857  2.0346
  611SOL     MW 2444   2.509   1.796   0.678  0.1127 -0.2236  0.3951
  612SOL     OW 2445   2.795   2.820   0.415  0.1221 -0.3836 -0.0046
  612SOL    HW1 2446   2.845   2.844   0.494 -1.2321  3.1771 -1.8072
  612SOL    HW2 2447   2.868   2.799   0.354  1.1697 -0.1069  0.5280
  612SOL     MW 2448   2.811   2.821   0.417  0.0816  0.1227 -0.1722
  613SOL     OW 2449   1.483   0.981   0.963 -0.4525 -0.5821 -0.0036
  613SOL    HW1 2450   1.504   1.071   0.970  2.5008 -0.0623 -1.1787
  613SOL    HW2 2451   1.505   0.957   1.053  2.1281  2.8116  0.6083
  613SOL     MW 2452   1.489   0.990   0.976  0.2777 -0.0658 -0.0779
  614SOL     OW 2453   2.004   0.564   1.457  0.2445 -0.1276  0.5950
  614SOL    HW1 2454   2.005   0.471   1.483 -2.1544  0.0195  1.4688
  614SOL    HW2 2455   1.960   0.556   1.371  2.9157  2.0266  0.5852
  614SOL     MW 2456   1.998   0.551   1.449  0.2804  0.1760  0.7090
  615SOL     OW 2457   2.399   0.724   0.262  0.3654  0.3125 -0.3531
  615SOL    HW1 2458   2.457   0.649   0.269 -1.5961 -0.0329 -1.5399
  615SOL    HW2 2459   2.352   0.705   0.181  0.3527 -1.4876 -0.0457
  615SOL     MW 2460   2.400   0.711   0.252  0.1049  0.0294 -0.4691
  616SOL     OW 2461   2.479   0.394   1.609  0.0345  0.1202  0.7296
  616SOL    HW1 2462   2.442   0.306   1.591 -0.9001 -1.4304  1.9716
  616SOL    HW2 2463   2.453   0.452   1.533 -0.0823  1.9191  2.6059
  616SOL     MW 2464   2.470   0.390   1.596 -0.1042  0.1530  1.1410
  617SOL     OW 2465   2.897   0.602   1.730 -0.7006  0.8649 -0.5016
  617SOL    HW1 2466   2.813   0.623   1.768  0.3459  2.9154 -1.3155
  617SOL    HW2 2467   2.888   0.508   1.735  1.0010 -0.1242  3.4355
  617SOL     MW 2468   2.885   0.592   1.736 -0.3380  1.0049 -0.0895
  618SOL     OW 2469   2.753   0.380   1.872 -1.0643  0.4455  0.3336
  618SOL    HW1 2470   2.705   0.459   1.892 -1.2374  0.0582  1.4164
  618SOL    HW2 2471   2.832   0.404   1.917 -1.9575  1.5946  2.1083
  618SOL     MW 2472   2.757   0.394   1.881 -1.2050  0.5460  0.7106
  619SOL     OW 2473   2.652   0.644   0.125 -0.3779 -0.5014 -0.2228
  619SOL    HW1 2474   2.682   0.734   0.143  2.6999 -0.9576  0.3606
  619SOL    HW2 2475   2.636   0.595   0.208 -0.2524 -1.9617  0.3873
  619SOL     MW 2476   2.654   0.649   0.138  0.0448 -0.7542 -0.0653
  620SOL     OW 2477   2.271   1.043   1.017 -0.4671 -0.0756 -0.5071
  620SOL    HW1 2478   2.328   1.062   0.940  1.7236  0.7814  0.3267
  620SOL    HW2 2479   2.183   1.022   0.971 -0.4264 -1.9738 -2.1245
  620SOL     MW 2480   2.267   1.043   1.001 -0.1727 -0.2130 -0.6105
  621SOL     OW 2481   1.529   2.128   1.941  0.2535  0.2377 -0.3080
  621SOL    HW1 2482   1.464   2.084   2.006 -1.8413 -0.9283 -1.7351
  621SOL    HW2 2483   1.617   2.096   1.957  0.5831  2.9986 -4.3562
  621SOL     MW 2484   1.532   2.118   1.951  0.0206  0.4481 -1.0304
  622SOL     OW 2485   2.632   0.156   0.254 -0.0469  0.1305 -0.1454
  622SOL    HW1 2486   2.720   0.191   0.264  0.2374 -1.1836 -1.7674
  622SOL    HW2 2487   2.630   0.063   0.277 -2.9367 -0.6603 -0.6420
  622SOL     MW 2488   2.643   0.148   0.259 -0.3906 -0.1472 -0.4249
  623SOL     OW 2489   2.330   2.831   0.857  0.8143  0.1089  0.3862
  623SOL    HW1 2490   2.419   2.862   0.859 -2.3587  0.5050  0.2655
  623SOL    HW2 2491   2.292   2.834   0.949 -2.1946  1.2810 -3.2166
  623SOL     MW 2492   2.337   2.835   0.869 -0.0013  0.3158 -0.1051
  624SOL     OW 2493   2.189   1.724   3.003  0.0019  0.1047  0.0502
  624SOL    HW1 2494   2.163   1.660   3.074 -0.5089 -1.6601 -0.7373
  624SOL    HW2 2495   2.117   1.743   2.946 -2.6569 -0.9452 -2.6415
  624SOL     MW 2496   2.176   1.718   3.005 -0.4162 -0.2667 -0.4089
  625SOL     OW 2497   2.190   1.950   1.079 -0.1192 -0.2138 -1.0054
  625SOL    HW1 2498   2.247   1.892   1.139 -0.8934  0.4219 -1.6763
  625SOL    HW2 2499   2.244   1.938   0.998  0.1150 -0.6076 -0.3855
  625SOL     MW 2500   2.205   1.941   1.076 -0.1904 -0.1819 -1.0121
  626SOL     OW 2501   0.304   1.619   2.363  0.1754 -0.0027 -0.6340
  626SOL    HW1 2502   0.297   1.522   2.373 -1.8453 -2.8786  0.0389
  626SOL    HW2 2503   0.218   1.660   2.382 -0.6675 -0.7830 -1.0977
  626SOL     MW 2504   0.292   1.612   2.367 -0.2025 -0.4851 -0.6064
  627SOL     OW 2505   2.474   0.726   2.612 -0.3808 -0.4685 -0.4942
  627SOL    HW1 2506   2.467   0.822   2.621  2.2000 -0.5887 -0.7543
  627SOL    HW2 2507   2.451   0.711   2.520 -0.3625 -0.3841 -0.1951
  627SOL     MW 2508   2.470   0.737   2.601 -0.0379 -0.4732 -0.4890
  628SOL     OW 2509   2.344   1.417   1.366 -0.3363  0.2046 -0.0614
  628SOL    HW1 2510   2.321   1.337   1.318  2.7032  1.6625 -1.0684
  628SOL    HW2 2511   2.434   1.423   1.383 -2.9711  1.5935  0.6362
  628SOL     MW 2512   2.353   1.407   1.362 -0.2829  0.5802 -0.1022
  629SOL     OW 2513   1.857   0.535   1.223  0.1182 -0.5246 -0.4747
  629SOL    HW1 2514   1.845   0.628   1.194  2.5379 -0.5533 -2.4518
  629SOL    HW2 2515   1.770   0.520   1.263 -2.9395 -1.4643 -0.2578
  629SOL     MW 2516   1.844   0.545   1.225  0.0340 -0.6524 -0.7069
  630SOL     OW 2517   2.456   1.816   2.976 -0.0531  0.7816 -0.1530
  630SOL    HW1 2518   2.469   1.911   2.948  0.5938  2.5728 -1.7950
  630SOL    HW2 2519   2.359   1.805   2.974 -0.2742 -0.2321 -1.3685
  630SOL     MW 2520   2.445   1.827   2.972  0.0031  0.8842 -0.5300
  631SOL     OW 2521   1.981   1.821   1.559 -0.1709 -0.0445 -0.0991
  631SOL    HW1 2522   2.002   1.732   1.590  0.8479 -2.6172 -1.7638
  631SOL    HW2 2523   1.961   1.822   1.467  2.3820 -1.5785  0.6394
  631SOL     MW 2524   1.981   1.810   1.551  0.3003 -0.5864 -0.2213
  632SOL     OW 2525   0.158   1.966   1.445  0.4662 -0.0837 -0.0554
  632SOL    HW1 2526   0.092   1.969   1.518 -1.2207 -1.7032 -0.6974
  632SOL    HW2 2527   0.163   1.876   1.429  2.8291 -0.8474 -0.7065
  632SOL     MW 2528   0.150   1.955   1.453  0.5554 -0.3981 -0.2260
  633SOL     OW 2529   2.582   0.506   0.337 -0.3976 -0.2201 -0.3853
  633SOL    HW1 2530   2.637   0.495   0.415 -0.5949  1.4179 -0.7967
  633SOL    HW2 2531   2.558   0.418   0.319  0.8275  0.9164 -2.0773
  633SOL     MW 2532   2.586   0.493   0.345 -0.2620  0.1459 -0.6628
  634SOL     OW 2533   2.677   3.080   0.614 -0.4125  0.3175  0.1395
  634SOL    HW1 2534   2.728   3.160   0.623  2.0107 -0.2558  1.8227
  634SOL    HW2 2535   2.614   3.090   0.542  0.5310  2.0040  1.1747
  634SOL     MW 2536   2.675   3.092   0.606  0.0317  0.4644  0.4981
  635SOL     OW 2537   2.627   0.132   1.816 -0.4674 -0.0908  0.0704
  635SOL    HW1 2538   2.711   0.084   1.813 -0.2251  0.2481  0.8725
  635SOL    HW2 2539   2.656   0.217   1.841  2.2517  1.6317  0.7716
  635SOL     MW 2540   2.642   0.137   1.819 -0.0767  0.1812  0.2687
  636SOL     OW 2541   2.863   1.615   1.098 -0.5962 -0.0106 -0.2981
  636SOL    HW1 2542   2.809   1.649   1.171 -0.1874  1.4194  0.2190
  636SOL    HW2 2543   2.924   1.693   1.075 -2.3914  0.9816 -2.4160
  636SOL     MW 2544   2.864   1.630   1.105 -0.7792  0.3090 -0.5093
  637SOL     OW 2545   2.882   1.468   0.742 -0.2613 -0.8057  0.5565
  637SOL    HW1 2546   2.923   1.556   0.753 -0.0707  0.3767  0.7705
  637SOL    HW2 2547   2.799   1.474   0.788 -1.5807  0.9579 -2.1278
  637SOL     MW 2548   2.876   1.481   0.749 -0.4102 -0.4170  0.2306
  638SOL     OW 2549   2.758   0.499   0.561 -0.7150  0.3565  0.1130
  638SOL    HW1 2550   2.848   0.517   0.534  0.9879 -0.3471  0.7553
  638SOL    HW2 2551   2.741   0.556   0.640 -1.6906  1.6796  1.9470
  638SOL     MW 2552   2.767   0.509   0.568 -0.6190  0.4382  0.4398
  639SOL     OW 2553   1.754   0.029   0.623 -0.3637  0.3577 -0.3709
  639SOL    HW1 2554   1.679   0.074   0.586 -1.1177 -0.4245  1.8304
  639SOL    HW2 2555   1.780  -0.038   0.551 -1.1113 -1.7815 -1.8226
  639SOL     MW 2556   1.748   0.026   0.608 -0.5618 -0.0278 -0.2720
  640SOL     OW 2557   0.359   1.308   0.113 -0.0698 -0.2345  0.5818
  640SOL    HW1 2558   0.375   1.335   0.019 -0.5584  0.3786  0.4217
  640SOL    HW2 2559   0.311   1.224   0.108 -0.6566 -0.4637 -3.3030
  640SOL     MW 2560   0.355   1.300   0.100 -0.2117 -0.1838  0.0481
  641SOL     OW 2561   2.162   0.411   0.349  0.1342 -0.0569  0.5804
  641SOL    HW1 2562   2.197   0.421   0.257  2.6156 -1.4917 -1.7679
  641SOL    HW2 2563   2.217   0.345   0.384 -1.4668  0.5214  1.8542
  641SOL     MW 2564   2.174   0.403   0.342  0.2504 -0.1699  0.4387
  642SOL     OW 2565   0.057   3.067   0.579  1.0648 -0.0010 -0.3072
  642SOL    HW1 2566   0.031   3.143   0.520 -2.8676  0.0171  1.0488
  642SOL    HW2 2567  -0.035   3.036   0.603 -0.6279  0.2266  0.1771
  642SOL     MW 2568   0.041   3.073   0.575  0.3226  0.0314 -0.0644
  643SOL     OW 2569   2.020   0.335   1.627 -0.8347  0.0414 -0.3232
  643SOL    HW1 2570   1.951   0.336   1.691  0.5744  2.4205 -0.9372
  643SOL    HW2 2571   2.026   0.245   1.586  0.6408 -2.5003 -1.0929
  643SOL     MW 2572   2.012   0.324   1.630 -0.4541  0.0199 -0.5058
  644SOL     OW 2573   2.746   2.035   1.044 -0.0322  0.0680  0.1413
  644SOL    HW1 2574   2.717   1.946   1.068  2.2479 -2.4188 -0.6222
  644SOL    HW2 2575   2.669   2.086   1.035 -0.8162 -0.3421  0.1832
  644SOL     MW 2576   2.732   2.030   1.046  0.1652 -0.3142  0.0461
  645SOL     OW 2577   2.856   0.840   0.656 -0.3923  0.0075 -0.3456
  645SOL    HW1 2578   2.947   0.821   0.660  0.0368  0.5195  0.4097
  645SOL    HW2 2579   2.814   0.788   0.720  0.6075 -2.0144 -0.2226
  645SOL     MW 2580   2.863   0.830   0.665 -0.2038 -0.1917 -0.2297
  646SOL     OW 2581   0.165   2.297   0.817 -0.0978 -0.1966 -0.2382
  646SOL    HW1 2582   0.167   2.200   0.849 -1.9551 -0.3454  0.6076
  646SOL    HW2 2583   0.086   2.308   0.755 -0.9447  0.6902  4.7382
  646SOL     MW 2584   0.155   2.286   0.813 -0.4546 -0.0992  0.5300
  647SOL     OW 2585   2.665   0.471   2.965 -0.0905  0.0573 -0.1225
  647SOL    HW1 2586   2.643   0.401   3.029 -2.0539  0.3591 -0.1288
  647SOL    HW2 2587   2.660   0.559   3.004  1.5475 -0.0829 -0.7650
  647SOL     MW 2588   2.661   0.474   2.978 -0.1334  0.0786 -0.2081
  648SOL     OW 2589   2.098   0.742   1.215 -0.3869  0.2397 -0.3960
  648SOL    HW1 2590   2.163   0.762   1.152 -0.7848 -1.5059  3.0928
  648SOL    HW2 2591   2.121   0.808   1.279 -1.4328 -2.6989 -2.5009
  648SOL     MW 2592   2.110   0.754   1.215 -0.5774 -0.3784 -0.2134
  649SOL     OW 2593   2.368   2.682   1.264  0.3927 -0.1368 -0.0530
  649SOL    HW1 2594   2.450   2.725   1.269  4.0961 -2.3858 -0.5489
  649SOL    HW2 2595   2.379   2.588   1.282 -0.8518 -2.5165  2.4392
  649SOL     MW 2596   2.380   2.675   1.267  0.7171 -0.7475  0.2104
  650SOL     OW 2597   2.834   0.214   0.630  0.7752  0.0542  0.1660
  650SOL    HW1 2598   2.817   0.308   0.633 -4.9935 -1.3399 -2.4350
  650SOL    HW2 2599   2.921   0.195   0.606 -2.0915 -1.0856  0.2933
  650SOL     MW 2600   2.843   0.224   0.627 -0.3642 -0.2802 -0.1604
  651SOL     OW 2601   2.978   0.415   0.887  0.2829  0.4738  0.3685
  651SOL    HW1 2602   3.057   0.464   0.871 -1.8262  0.3321  1.8418
  651SOL    HW2 2603   2.921   0.473   0.935  0.6695 -0.9719 -0.5765
  651SOL     MW 2604   2.981   0.429   0.891  0.0557  0.2644  0.4382
  652SOL     OW 2605   2.452   1.513   2.982  0.3051 -0.5143 -0.0549
  652SOL    HW1 2606   2.497   1.475   2.904  2.0238 -3.6351  0.3233
  652SOL    HW2 2607   2.420   1.596   2.960 -1.3464 -1.9391  4.2564
  652SOL     MW 2608   2.454   1.519   2.969  0.3140 -1.1141  0.5639
  653SOL     OW 2609   1.847   0.417   0.397 -0.9547 -0.0672  0.1863
  653SOL    HW1 2610   1.787   0.401   0.325 -2.1883 -1.2419  2.9893
  653SOL    HW2 2611   1.932   0.387   0.371 -2.6142 -1.6939  1.0265
  653SOL     MW 2612   1.850   0.411   0.384 -1.3364 -0.4369  0.6669
  654SOL     OW 2613   2.391   1.028   0.759  0.0354  0.3092  0.6472
  654SOL    HW1 2614   2.330   1.019   0.683 -0.7807  0.9229  0.1777
  654SOL    HW2 2615   2.444   0.951   0.770 -2.5321  1.7430  1.8493
  654SOL     MW 2616   2.390   1.017   0.751 -0.4110  0.5793  0.7438
  655SOL     OW 2617   2.904   0.815   0.353  0.3988  0.0396  0.2042
  655SOL    HW1 2618   2.842   0.844   0.417 -0.2429 -0.0627 -1.0390
  655SOL    HW2 2619   2.935   0.730   0.395  0.0687  0.2881 -2.5949
  655SOL     MW 2620   2.900   0.807   0.367  0.2705  0.0589 -0.3292
  656SOL     OW 2621   1.864   2.720   1.336  0.4955 -0.2667  0.6508
  656SOL    HW1 2622   1.889   2.809   1.354  1.9960 -0.0113  2.0675
  656SOL    HW2 2623   1.916   2.673   1.396  0.1880  0.2808 -4.4287
  656SOL     MW 2624   1.874   2.725   1.346  0.6529 -0.1608  0.1675
  657SOL     OW 2625   0.133   1.713   1.204 -0.2115  0.4948 -1.1959
  657SOL    HW1 2626   0.202   1.776   1.184 -0.4654  0.4476  0.4604
  657SOL    HW2 2627   0.172   1.633   1.167 -2.6986 -0.0555 -0.4944
  657SOL     MW 2628   0.147   1.710   1.197 -0.5731  0.4160 -0.8848
  658SOL     OW 2629   2.716   1.347   0.229 -0.8019  0.1621  0.5865
  658SOL    HW1 2630   2.678   1.277   0.286  1.9748  3.4914 -1.2110
  658SOL    HW2 2631   2.759   1.402   0.297 -0.7473  1.9066 -0.4691
  658SOL     MW 2632   2.716   1.345   0.246 -0.4283  0.8315  0.2101
  659SOL     OW 2633   2.278   1.518   1.066 -0.0995 -0.0165 -0.1652
  659SOL    HW1 2634   2.377   1.511   1.076  1.9145  0.8654 -1.7562
  659SOL    HW2 2635   2.262   1.578   1.145  2.9165  1.7540  2.1405
  659SOL     MW 2636   2.289   1.525   1.078  0.5642  0.3335 -0.0709
  660SOL     OW 2637   2.031   1.578   1.690 -0.7039 -0.1150  0.1345
  660SOL    HW1 2638   2.032   1.596   1.783  1.7904 -1.6600  0.0663
  660SOL    HW2 2639   1.940   1.546   1.670 -0.0971  1.2877  3.6260
  660SOL     MW 2640   2.019   1.576   1.700 -0.2947 -0.1338  0.5862
  661SOL     OW 2641   2.421   0.997   0.203  0.4296  0.2185 -0.4259
  661SOL    HW1 2642   2.453   1.040   0.285 -0.8346  0.2584  0.9991
  661SOL    HW2 2643   2.395   0.903   0.230 -1.1466 -2.1156 -0.5343
  661SOL     MW 2644   2.422   0.990   0.218  0.0549 -0.0842 -0.2522
  662SOL     OW 2645   2.584   2.962   0.849 -0.6841 -0.2935  0.3775
  662SOL    HW1 2646   2.556   3.035   0.902  0.6604 -0.1092 -0.1462
  662SOL    HW2 2647   2.617   3.009   0.772 -2.3614 -0.2799  0.3708
  662SOL     MW 2648   2.585   2.978   0.846 -0.7280 -0.2674  0.3075
  663SOL     OW 2649   2.689   1.491   0.497 -0.3804  0.2730  0.2562
  663SOL    HW1 2650   2.650   1.566   0.457  0.8937 -0.9466 -0.3665
  663SOL    HW2 2651   2.758   1.527   0.549 -1.7684 -1.8149  1.4741
  663SOL     MW 2652   2.693   1.505   0.498 -0.3954 -0.1634  0.3347
  664SOL     OW 2653   2.516   1.522   1.579  0.5327  0.4399 -0.2014
  664SOL    HW1 2654   2.501   1.614   1.565  2.6963 -1.3769 -0.1888
  664SOL    HW2 2655   2.431   1.489   1.610 -0.1734  1.0772  0.4199
  664SOL     MW 2656   2.503   1.530   1.581  0.7250  0.2843 -0.1178
  665SOL     OW 2657   2.853   0.852   2.019  0.1369 -0.0151  0.1543
  665SOL    HW1 2658   2.838   0.900   1.931  2.4369 -0.7298 -0.0550
  665SOL    HW2 2659   2.911   0.779   1.993  0.0961  0.3357  2.7238
  665SOL     MW 2660   2.858   0.849   2.004  0.4350 -0.0631  0.4657
  666SOL     OW 2661   2.756   2.995   1.715 -0.1417  0.0125 -0.3142
  666SOL    HW1 2662   2.766   3.040   1.635 -0.0723  0.4034 -0.2721
  666SOL    HW2 2663   2.686   2.931   1.704  1.5459  0.7709  1.1033
  666SOL     MW 2664   2.748   2.993   1.703  0.0901  0.1641 -0.1216
  667SOL     OW 2665   1.947   2.699   1.751 -0.6778  0.6679 -0.1166
  667SOL    HW1 2666   1.979   2.636   1.820 -2.8297  0.8815  2.7851
  667SOL    HW2 2667   2.026   2.756   1.739  0.3683  1.0966  1.5947
  667SOL     MW 2668   1.962   2.698   1.759 -0.8237  0.7526  0.4920
  668SOL     OW 2669   2.745   0.651   0.838 -0.1538  0.4160  0.0682
  668SOL    HW1 2670   2.806   0.663   0.911  0.4780  0.9068  0.0954
  668SOL    HW2 2671   2.671   0.706   0.856 -1.4734  0.9416 -0.0974
  668SOL     MW 2672   2.743   0.659   0.850 -0.2445  0.5501  0.0500
  669SOL     OW 2673   0.235   0.967   0.679  0.0164  0.1122  0.0905
  669SOL    HW1 2674   0.199   1.033   0.730 -0.0598 -0.1664 -0.8393
  669SOL    HW2 2675   0.320   0.953   0.733 -1.6626  0.0750 -0.3675
  669SOL     MW 2676   0.242   0.973   0.692 -0.2152  0.0705 -0.0926
  670SOL     OW 2677   2.905   0.232   0.228  0.2089 -0.1706 -0.7630
  670SOL    HW1 2678   2.918   0.164   0.158 -1.6228 -0.4864  1.7673
  670SOL    HW2 2679   2.941   0.307   0.186 -2.6321  0.6538 -0.4264
  670SOL     MW 2680   2.911   0.233   0.213 -0.4076 -0.1035 -0.3848
  671SOL     OW 2681   2.012   2.973   1.484 -0.1240  0.5247  0.6268
  671SOL    HW1 2682   1.949   2.995   1.416 -0.9344 -1.4096  0.8244
  671SOL    HW2 2683   1.981   3.023   1.562  1.3570 -2.2656  2.2532
  671SOL     MW 2684   1.999   2.983   1.485 -0.0356 -0.0987  0.8675
  672SOL     OW 2685   1.913   1.668   1.309 -0.1889  0.0995  0.0011
  672SOL    HW1 2686   1.828   1.706   1.327 -0.7618  1.1122 -1.2662
  672SOL    HW2 2687   1.939   1.713   1.222  0.8457 -0.6394 -1.9124
  672SOL     MW 2688   1.905   1.679   1.300 -0.1280  0.1356 -0.4186
  673SOL     OW 2689   2.771   1.076   0.585  0.3660  0.2667 -0.3466
  673SOL    HW1 2690   2.803   0.988   0.616  1.4983  2.2307  0.3657
  673SOL    HW2 2691   2.843   1.138   0.615  2.8461  1.7451 -0.5827
  673SOL     MW 2692   2.785   1.072   0.593  0.8426  0.7209 -0.2838
  674SOL     OW 2693   2.430   0.051   1.311  0.0467 -0.2610 -0.1259
  674SOL    HW1 2694   2.417   0.050   1.215 -0.4488 -0.6120  1.9018
  674SOL    HW2 2695   2.438  -0.038   1.342 -2.1301  1.1826  1.4368
  674SOL     MW 2696   2.429   0.039   1.302 -0.3059 -0.1169  0.3478
  675SOL     OW 2697   3.050   0.877   1.062  0.4581  0.0692  0.4366
  675SOL    HW1 2698   3.127   0.850   1.111 -2.2102  0.8081 -0.9613
  675SOL    HW2 2699   3.086   0.943   1.001  1.3286 -0.7149  2.1594
  675SOL     MW 2700   3.064   0.882   1.060  0.2209  0.0633  0.4794
  676SOL     OW 2701   2.869   1.510   1.645  0.3361  0.8771 -0.4879
  676SOL    HW1 2702   2.811   1.430   1.629 -1.5604 -1.8891 -1.6524
  676SOL    HW2 2703   2.934   1.453   1.687  0.1686  0.5735 -0.1411
  676SOL     MW 2704   2.870   1.492   1.649  0.0637  0.4721 -0.5958
  677SOL     OW 2705   2.401   0.588   1.978 -0.0080 -0.7732  0.5392
  677SOL    HW1 2706   2.363   0.578   1.891  1.6629  1.0237 -1.4744
  677SOL    HW2 2707   2.367   0.670   2.010  1.0443 -1.0734 -3.3929
  677SOL     MW 2708   2.391   0.597   1.970  0.3513 -0.5757 -0.2453
  678SOL     OW 2709   2.553   1.649   0.328  1.2591  0.2797 -0.3315
  678SOL    HW1 2710   2.471   1.700   0.353 -1.2594  2.0790 -0.1982
  678SOL    HW2 2711   2.514   1.581   0.264  1.3238 -0.9771 -3.4924
  678SOL     MW 2712   2.537   1.647   0.323  0.9354  0.3513 -0.7310
  679SOL     OW 2713   2.250   0.489   1.229  0.0994 -0.1919  0.3523
  679SOL    HW1 2714   2.233   0.400   1.202 -1.8641  0.1265 -0.7656
  679SOL    HW2 2715   2.165   0.520   1.259 -0.1554 -0.9722  2.5402
  679SOL     MW 2716   2.237   0.481   1.229 -0.1933 -0.2528  0.4935
  680SOL     OW 2717   2.358   0.191   1.517 -0.3108 -0.1861 -0.3419
  680SOL    HW1 2718   2.273   0.215   1.492  4.0504 -2.5739  0.8913
  680SOL    HW2 2719   2.383   0.140   1.442  0.4753  2.4757  1.3974
  680SOL     MW 2720   2.350   0.188   1.504  0.3684 -0.1499  0.0503
  681SOL     OW 2721   0.291   0.569   1.567 -0.2317 -0.6713 -0.0661
  681SOL    HW1 2722   0.264   0.492   1.609  1.0374  1.8388 -2.3982
  681SOL    HW2 2723   0.386   0.568   1.575 -0.2414 -2.3578 -2.5459
  681SOL     MW 2724   0.300   0.559   1.574 -0.0655 -0.5626 -0.7010
  682SOL     OW 2725   0.077   2.891   1.489 -0.2747 -0.2032  0.0594
  682SOL    HW1 2726   0.054   2.976   1.458  2.5581  1.6790  0.4016
  682SOL    HW2 2727   0.060   2.880   1.581  0.2213  0.1332  1.1528
  682SOL     MW 2728   0.071   2.900   1.497  0.1645  0.0895  0.2488
  683SOL     OW 2729   2.047   0.847   2.981 -0.3381 -0.4821  0.0209
  683SOL    HW1 2730   1.959   0.811   2.997 -2.0476 -0.9575 -1.1770
  683SOL    HW2 2731   2.040   0.942   2.977  0.5195 -1.7327 -0.6978
  683SOL     MW 2732   2.035   0.855   2.982 -0.4505 -0.7098 -0.2320
  684SOL     OW 2733   2.215   1.673   0.868 -0.0144 -0.0118 -0.7210
  684SOL    HW1 2734   2.190   1.599   0.820  1.1062  0.4656 -0.8877
  684SOL    HW2 2735   2.238   1.628   0.954 -1.6217 -0.9395 -0.1009
  684SOL     MW 2736   2.215   1.658   0.873 -0.0787 -0.0712 -0.6612
  685SOL     OW 2737   2.654   1.755   1.214 -0.6238 -0.2480 -0.5932
  685SOL    HW1 2738   2.683   1.740   1.305 -0.1413  2.4884 -0.5028
  685SOL    HW2 2739   2.625   1.671   1.177  0.3138 -2.2462  1.0103
  685SOL     MW 2740   2.654   1.742   1.222 -0.4364 -0.1506 -0.3697
  686SOL     OW 2741   2.902   0.773   1.509 -0.4043  0.1365 -0.2581
  686SOL    HW1 2742   2.880   0.725   1.588  1.7367  0.7318 -0.2716
  686SOL    HW2 2743   2.996   0.753   1.500 -2.1111  0.7943  1.5345
  686SOL     MW 2744   2.912   0.764   1.518 -0.3470  0.3018 -0.0234
  687SOL     OW 2745   2.110   0.224   1.140  0.3246  0.1612  0.5076
  687SOL    HW1 2746   2.148   0.173   1.068 -1.4368  0.2371 -2.5381
  687SOL    HW2 2747   2.042   0.269   1.092  3.2515  1.9317 -1.0324
  687SOL     MW 2748   2.106   0.223   1.124  0.4784  0.4048 -0.0974
  688SOL     OW 2749   2.387   0.597   1.432 -0.2169 -0.8239  0.1587
  688SOL    HW1 2750   2.347   0.557   1.349  0.3902  0.2208 -3.2110
  688SOL    HW2 2751   2.313   0.622   1.488  3.1111  0.2443  4.5634
  688SOL     MW 2752   2.372   0.595   1.429  0.3023 -0.5451  0.2952
  689SOL     OW 2753   2.537   0.740   2.978 -0.4644  0.3227  0.3085
  689SOL    HW1 2754   2.578   0.803   2.919  0.2423  0.6941  1.4559
  689SOL    HW2 2755   2.553   0.758   3.069 -0.6849 -3.1705 -3.5902
  689SOL     MW 2756   2.545   0.751   2.982 -0.4003 -0.0892 -0.0545
  690SOL     OW 2757   2.047   0.958   1.914 -0.3164  0.1626 -0.3439
  690SOL    HW1 2758   2.003   0.874   1.879 -1.2757 -0.1699 -3.1656
  690SOL    HW2 2759   2.086   0.995   1.834 -0.1550  0.1124 -2.9454
  690SOL     MW 2760   2.046   0.952   1.899 -0.4217  0.1121 -1.0594
  691SOL     OW 2761   2.408   0.276   0.889 -0.7355 -0.1344  0.2951
  691SOL    HW1 2762   2.469   0.326   0.942 -1.7282  0.5342  0.7248
  691SOL    HW2 2763   2.320   0.312   0.900 -0.5248  0.8266  2.3986
  691SOL     MW 2764   2.404   0.287   0.898 -0.8387  0.0806  0.6294
  692SOL     OW 2765   2.790   1.689   1.457  0.8619  0.0286  0.2140
  692SOL    HW1 2766   2.826   1.644   1.537  0.1936 -1.4610  0.8755
  692SOL    HW2 2767   2.843   1.769   1.450  0.7028  0.6339 -3.5738
  692SOL     MW 2768   2.801   1.694   1.467  0.7527 -0.0881 -0.1985
  693SOL     OW 2769   2.269   0.428   0.092  0.2721 -0.1691  0.1221
  693SOL    HW1 2770   2.191   0.367   0.074  0.1494 -2.6582 -0.2316
  693SOL    HW2 2771   2.243   0.497   0.030 -0.2612 -2.3091  2.4898
  693SOL     MW 2772   2.255   0.429   0.082  0.1855 -0.7798  0.3878
  694SOL     OW 2773   1.923   1.209   1.124  0.6129 -0.5524  0.5111
  694SOL    HW1 2774   2.006   1.192   1.168 -1.9171 -0.9561 -0.2179
  694SOL    HW2 2775   1.864   1.139   1.146  1.3096  0.7634 -2.4256
  694SOL     MW 2776   1.926   1.198   1.133  0.3710 -0.4320  0.0275
  695SOL     OW 2777   3.017   1.485   1.356 -0.0079  0.1842 -0.3859
  695SOL    HW1 2778   2.988   1.432   1.282 -1.6054 -1.3191 -0.4537
  695SOL    HW2 2779   2.932   1.530   1.374 -0.7157 -0.1225 -0.3170
  695SOL     MW 2780   3.002   1.484   1.348 -0.3121 -0.0546 -0.3858
  696SOL     OW 2781   2.156   1.383   0.882  0.1246 -0.1804 -0.2206
  696SOL    HW1 2782   2.192   1.441   0.947 -1.4181 -4.8238 -1.6582
  696SOL    HW2 2783   2.138   1.305   0.931  0.5135  1.8368  1.2604
  696SOL     MW 2784   2.158   1.380   0.897 -0.0276 -0.5269 -0.2149
  697SOL     OW 2785   2.926   1.062   2.184 -0.1065 -0.4971 -0.1419
  697SOL    HW1 2786   2.862   1.133   2.156 -0.4115  3.8542 -1.0623
  697SOL    HW2 2787   2.897   0.981   2.147  1.5549  1.9404  0.3011
  697SOL     MW 2788   2.914   1.061   2.176  0.0724  0.3986 -0.2049
  698SOL     OW 2789   2.536   0.293   0.028 -0.4806 -0.2086 -0.2199
  698SOL    HW1 2790   2.462   0.345   0.065  1.9859  1.5496  0.5500
  698SOL    HW2 2791   2.583   0.240   0.100  0.2172  0.5830 -1.3765
  698SOL     MW 2792   2.532   0.293   0.043 -0.0631  0.1278 -0.2709
  699SOL     OW 2793   1.822   1.620   2.004 -0.1853  0.6279  0.3829
  699SOL    HW1 2794   1.790   1.526   2.002  2.3277 -1.1954 -3.4814
  699SOL    HW2 2795   1.919   1.596   2.004 -0.2560 -3.2515  2.3648
  699SOL     MW 2796   1.831   1.605   2.004  0.1369 -0.1245  0.1345
  700SOL     OW 2797   2.701   0.938   1.491 -0.5235  0.2158  0.1167
  700SOL    HW1 2798   2.718   1.017   1.438 -2.8112  0.2907 -0.0219
  700SOL    HW2 2799   2.782   0.880   1.476  1.7795  2.6681 -0.9371
  700SOL     MW 2800   2.714   0.940   1.482 -0.5215  0.5492 -0.0406
  701SOL     OW 2801   1.619   1.202   2.485  0.2117 -0.1535  0.2421
  701SOL    HW1 2802   1.703   1.233   2.452 -1.3954  0.5989  1.1884
  701SOL    HW2 2803   1.606   1.242   2.571 -0.3948 -0.2719  2.4441
  701SOL     MW 2804   1.628   1.212   2.492 -0.0804 -0.0698  0.6575
  702SOL     OW 2805   2.164   0.416   0.854 -0.1783 -0.1052 -0.6828
  702SOL    HW1 2806   2.144   0.341   0.790 -1.0187  0.8911 -0.8571
  702SOL    HW2 2807   2.209   0.491   0.813 -0.8739  0.2077 -0.1267
  702SOL     MW 2808   2.167   0.416   0.840 -0.3809  0.0675 -0.6324
  703SOL     OW 2809   2.745   1.246   1.000  0.0395  0.0575  0.1758
  703SOL    HW1 2810   2.677   1.240   0.936  2.1457  0.3984  0.1213
  703SOL    HW2 2811   2.762   1.152   1.027  0.0556 -3.5320 -0.1596
  703SOL     MW 2812   2.738   1.233   0.995  0.3195 -0.3711  0.1243
  704SOL     OW 2813   3.056   1.242   0.183 -0.1794 -0.3687 -0.8968
  704SOL    HW1 2814   2.962   1.254   0.161  1.0357  1.2192  2.9442
  704SOL    HW2 2815   3.055   1.245   0.279  0.1446  0.9823  3.0236
  704SOL     MW 2816   3.044   1.244   0.193  0.0236  0.0191  0.1273
  705SOL     OW 2817   2.212   1.641   1.328 -0.3467 -0.0892  0.0433
  705SOL    HW1 2818   2.122   1.642   1.345  3.1901  2.8354 -1.5132
  705SOL    HW2 2819   2.247   1.545   1.340 -1.3617 -5.0331 -1.6405
  705SOL     MW 2820   2.205   1.629   1.332 -0.0140 -0.3556 -0.3842
  706SOL     OW 2821   2.998   1.202   0.688 -0.3849  0.1489  0.1700
  706SOL    HW1 2822   3.031   1.220   0.594 -1.7369  0.1971 -2.3865
  706SOL    HW2 2823   2.962   1.286   0.717  1.1582 -0.6677 -1.8095
  706SOL     MW 2824   2.998   1.216   0.679 -0.3597  0.0475 -0.4285
  707SOL     OW 2825   2.430   0.023   1.004 -0.0057  0.6740 -0.3067
  707SOL    HW1 2826   2.443   0.101   0.956  2.3022 -3.1037 -1.0653
  707SOL    HW2 2827   2.338  -0.006   0.981 -3.0467  1.2227  1.3860
  707SOL     MW 2828   2.419   0.029   0.994 -0.1025  0.2479 -0.1835
  708SOL     OW 2829   2.479   1.461   0.155 -0.6749 -0.3842  0.4140
  708SOL    HW1 2830   2.571   1.435   0.165  0.8762 -0.2228  0.1740
  708SOL    HW2 2831   2.478   1.480   0.057 -1.5088 -1.0616 -1.6795
  708SOL     MW 2832   2.491   1.460   0.143 -0.5803 -0.4523  0.1062
  709SOL     OW 2833   1.763   1.610   0.179  0.3206 -0.0777  0.3571
  709SOL    HW1 2834   1.744   1.670   0.102 -0.1665  5.2475  0.3233
  709SOL    HW2 2835   1.685   1.633   0.230  0.4909 -0.7101  0.7671
  709SOL     MW 2836   1.750   1.621   0.176  0.2788  0.5414  0.4067
  710SOL     OW 2837   2.208   1.219   1.215 -0.0196  1.4456 -0.2387
  710SOL    HW1 2838   2.227   1.174   1.132 -1.5335  1.5871 -1.2630
  710SOL    HW2 2839   2.216   1.146   1.278  0.2259  0.2169  1.2126
  710SOL     MW 2840   2.212   1.203   1.213 -0.1870  1.3022 -0.1823
  711SOL     OW 2841   2.344   0.118   1.796  0.2373  0.0727 -0.1766
  711SOL    HW1 2842   2.434   0.144   1.809  0.3908  0.9552  3.1872
  711SOL    HW2 2843   2.330   0.107   1.707 -0.1281 -0.1547  0.0327
  711SOL     MW 2844   2.354   0.120   1.786  0.2093  0.1591  0.2948
  712SOL     OW 2845   1.941   0.519   0.048  0.3490 -0.1427 -0.1667
  712SOL    HW1 2846   1.859   0.561   0.049 -1.6164 -2.3742 -0.7483
  712SOL    HW2 2847   1.978   0.554   0.130  0.4393  2.2182  3.9874
  712SOL     MW 2848   1.935   0.529   0.059  0.1016 -0.1256  0.3047
  713SOL     OW 2849   2.556   0.828   1.114 -0.2242  0.7181 -0.1058
  713SOL    HW1 2850   2.601   0.740   1.119  1.6615  0.8796  0.5572
  713SOL    HW2 2851   2.503   0.821   1.192 -3.8240  0.9111 -0.1974
  713SOL     MW 2852   2.555   0.815   1.125 -0.4504  0.7649 -0.0304
  714SOL     OW 2853   2.213   0.231   2.000  0.3143  0.1986  0.3917
  714SOL    HW1 2854   2.241   0.198   2.084  0.5361  2.4665 -2.0731
  714SOL    HW2 2855   2.274   0.191   1.934 -0.2021 -4.2588  0.7440
  714SOL     MW 2856   2.224   0.221   2.002  0.2755 -0.0903  0.1130
  715SOL     OW 2857   1.726   1.954   1.671  0.1014 -0.3191 -0.4050
  715SOL    HW1 2858   1.799   1.927   1.619  1.2836  0.7322 -0.7817
  715SOL    HW2 2859   1.700   1.876   1.732 -1.0615 -0.4097  1.6636
  715SOL     MW 2860   1.732   1.940   1.672  0.1039 -0.1923 -0.1818
  716SOL     OW 2861   2.319   0.639   0.677  0.0393 -0.1660  0.1133
  716SOL    HW1 2862   2.362   0.556   0.657 -0.0693 -0.8509  1.6681
  716SOL    HW2 2863   2.276   0.670   0.595  1.3805 -0.7753 -1.9827
  716SOL     MW 2864   2.319   0.632   0.663  0.2019 -0.3367  0.0419
  717SOL     OW 2865   2.880   1.535   2.936 -0.1487  0.3902  0.0366
  717SOL    HW1 2866   2.973   1.523   2.952 -0.4986 -0.7409 -0.1921
  717SOL    HW2 2867   2.833   1.584   3.006 -0.7580  1.1879 -1.1277
  717SOL     MW 2868   2.886   1.540   2.947 -0.2752  0.3463 -0.1472
  718SOL     OW 2869   2.657   1.399   1.325  0.6215  0.1200 -0.2098
  718SOL    HW1 2870   2.646   1.392   1.423 -0.5918 -0.2698  0.4774
  718SOL    HW2 2871   2.711   1.317   1.307  2.4943 -2.2573  1.2223
  718SOL     MW 2872   2.662   1.387   1.336  0.7085 -0.2451  0.0698
  719SOL     OW 2873   2.187   1.292   0.604 -0.4197 -0.8460 -0.5488
  719SOL    HW1 2874   2.283   1.295   0.602  1.4132 -2.6011  0.6512
  719SOL    HW2 2875   2.168   1.319   0.696  1.1773  3.0616  0.1919
  719SOL     MW 2876   2.197   1.296   0.616  0.0328 -0.5620 -0.2928
  720SOL     OW 2877   2.824   1.182   0.038 -0.7696  0.4173 -0.3173
  720SOL    HW1 2878   2.781   1.106   0.071 -2.2892  0.4188 -1.8758
  720SOL    HW2 2879   2.777   1.251   0.082 -0.1905  2.7986  0.4389
  720SOL     MW 2880   2.812   1.181   0.048 -0.8937  0.7316 -0.4232
  721SOL     OW 2881   2.438   0.864   1.355  0.2298  0.4015 -0.0348
  721SOL    HW1 2882   2.438   0.769   1.385  0.4252  0.7424  0.3072
  721SOL    HW2 2883   2.531   0.899   1.355  2.4404  0.0407  0.4829
  721SOL     MW 2884   2.450   0.856   1.359  0.5472  0.3989  0.0787
  722SOL     OW 2885   2.585   1.169   0.375  0.5637 -0.3937 -0.0296
  722SOL    HW1 2886   2.522   1.229   0.412  2.1158  1.7760  0.5088
  722SOL    HW2 2887   2.622   1.130   0.458 -1.9563  2.7953 -0.8246
  722SOL     MW 2888   2.581   1.172   0.391  0.4360  0.3133 -0.0634
  723SOL     OW 2889   2.255   1.411   1.634 -0.2144 -0.3824 -0.2303
  723SOL    HW1 2890   2.262   1.387   1.538  1.7177  2.0769 -2.0727
  723SOL    HW2 2891   2.177   1.467   1.641 -3.4769 -3.0865 -1.3648
  723SOL     MW 2892   2.246   1.416   1.622 -0.3899 -0.4147 -0.6231
  724SOL     OW 2893   2.449   0.396   0.638 -0.2354 -0.1115  0.1401
  724SOL    HW1 2894   2.435   0.357   0.722 -0.0516  1.0636 -1.0320
  724SOL    HW2 2895   2.540   0.384   0.621 -0.3835  1.5101  0.1781
  724SOL     MW 2896   2.459   0.390   0.647 -0.2307  0.2575 -0.0095
  725SOL     OW 2897   2.574   0.546   1.180 -0.4859  0.3169  0.2705
  725SOL    HW1 2898   2.653   0.581   1.238  3.1014 -0.1010 -0.5314
  725SOL    HW2 2899   2.527   0.483   1.234  1.9711  0.6317  1.1867
  725SOL     MW 2900   2.578   0.542   1.194  0.3116  0.3033  0.2856
  726SOL     OW 2901   2.608   2.442   0.540  0.0316 -0.2940  0.4906
  726SOL    HW1 2902   2.565   2.489   0.469 -1.5402 -1.1391  1.6109
  726SOL    HW2 2903   2.529   2.390   0.579 -3.4231  2.1056 -0.3839
  726SOL     MW 2904   2.592   2.441   0.536 -0.6316 -0.0889  0.5231
  727SOL     OW 2905   2.873   0.295   1.630  0.3909 -0.0807 -0.2184
  727SOL    HW1 2906   2.848   0.308   1.541 -1.0511  2.4293  0.7244
  727SOL    HW2 2907   2.794   0.320   1.677  0.1889 -1.1261  1.0716
  727SOL     MW 2908   2.859   0.300   1.625  0.1740  0.1126  0.0762
  728SOL     OW 2909   2.821   1.158   2.863 -0.0999  0.1801 -0.5511
  728SOL    HW1 2910   2.848   1.237   2.817 -0.1176  0.8974 -1.9682
  728SOL    HW2 2911   2.839   1.165   2.961 -0.2008 -0.5897 -2.5135
  728SOL     MW 2912   2.827   1.169   2.870 -0.1155  0.1732 -0.9970
  729SOL     OW 2913   2.551   1.515   1.108  0.2248  0.1537 -0.0673
  729SOL    HW1 2914   2.585   1.459   1.180 -0.6640 -1.9740  0.4922
  729SOL    HW2 2915   2.611   1.505   1.028 -0.5033  0.3676  0.1710
  729SOL     MW 2916   2.564   1.506   1.107  0.0114 -0.0988  0.0380
  730SOL     OW 2917   2.143   1.178   0.202  0.2801 -0.1414 -0.1146
  730SOL    HW1 2918   2.235   1.177   0.175 -2.7868  1.1872 -1.5007
  730SOL    HW2 2919   2.131   1.267   0.235 -0.2119  1.6022 -2.0384
  730SOL     MW 2920   2.153   1.190   0.203 -0.1895  0.2639 -0.5513
  731SOL     OW 2921   2.834   1.916   2.864 -0.1867 -0.4674  0.2626
  731SOL    HW1 2922   2.755   1.937   2.803 -2.8660  0.8102 -1.0552
  731SOL    HW2 2923   2.896   1.986   2.836 -0.3368  2.5090  0.2052
  731SOL     MW 2924   2.832   1.928   2.852 -0.5600  0.0939  0.0812
  732SOL     OW 2925   2.180   0.959   1.359  0.7225  0.1582 -0.7550
  732SOL    HW1 2926   2.160   0.956   1.454  0.4679 -2.5309 -0.1001
  732SOL    HW2 2927   2.270   0.930   1.350  0.3486 -2.6646 -1.1555
  732SOL     MW 2928   2.189   0.955   1.370  0.6396 -0.5690 -0.7214
  733SOL     OW 2929   2.331   2.768   3.062  0.8592 -0.0453  0.1700
  733SOL    HW1 2930   2.269   2.829   3.023  0.4478  1.8576  0.6076
  733SOL    HW2 2931   2.303   2.678   3.033 -1.3380  0.1685  1.3127
  733SOL     MW 2932   2.319   2.764   3.053  0.5150  0.2340  0.3785
  734SOL     OW 2933   1.471   0.376   2.448 -1.1028 -0.2001 -0.4315
  734SOL    HW1 2934   1.468   0.331   2.531  0.9328  1.7136  0.8284
  734SOL    HW2 2935   1.511   0.306   2.387 -1.2276 -2.5273  0.5455
  734SOL     MW 2936   1.476   0.361   2.451 -0.8507 -0.2546 -0.1364
  735SOL     OW 2937   2.926   0.930   2.595 -0.3157 -0.6500  0.1330
  735SOL    HW1 2938   2.925   0.833   2.594 -0.4024  0.5193 -0.5813
  735SOL    HW2 2939   2.979   0.950   2.676 -0.6918 -1.9287  3.2215
  735SOL     MW 2940   2.932   0.920   2.605 -0.3768 -0.6644  0.4462
  736SOL     OW 2941   0.132   0.576   2.524 -0.5303 -0.3353 -0.2720
  736SOL    HW1 2942   0.185   0.645   2.484  0.1953  1.0670 -2.4264
  736SOL    HW2 2943   0.102   0.524   2.450  0.0076 -1.4882  0.0967
  736SOL     MW 2944   0.135   0.579   2.509 -0.3636 -0.3024 -0.5076
  737SOL     OW 2945   2.964   0.641   2.552  0.2777 -0.5614 -0.4746
  737SOL    HW1 2946   2.926   0.610   2.471 -0.5555  0.0862 -0.5956
  737SOL    HW2 2947   3.061   0.645   2.549  1.4377 -1.6312 -0.2889
  737SOL     MW 2948   2.972   0.637   2.541  0.3208 -0.6171 -0.4661
  738SOL     OW 2949   0.235   0.571   1.885 -0.6643  0.0154 -0.0680
  738SOL    HW1 2950   0.330   0.589   1.896  0.3287  1.3705 -3.0555
  738SOL    HW2 2951   0.230   0.487   1.836 -2.0895  3.0538 -1.2527
  738SOL     MW 2952   0.247   0.562   1.880 -0.7213  0.5951 -0.6184
  739SOL     OW 2953   2.420   1.064   2.111  0.4036  0.8994 -0.4275
  739SOL    HW1 2954   2.365   0.989   2.080  0.0958 -0.7617 -0.7466
  739SOL    HW2 2955   2.474   1.077   2.035  2.0391 -1.8332  0.0871
  739SOL     MW 2956   2.420   1.056   2.097  0.5788  0.3197 -0.4017
  740SOL     OW 2957   0.247   1.776   2.964  0.0870 -0.0963 -0.7154
  740SOL    HW1 2958   0.192   1.697   2.970 -0.8938  1.4334  0.3199
  740SOL    HW2 2959   0.340   1.759   2.992  0.6181  0.7734  1.0986
  740SOL     MW 2960   0.252   1.764   2.969  0.0277  0.2203 -0.3395
  741SOL     OW 2961   2.267   1.270   2.722  0.1389 -0.4389 -0.5248
  741SOL    HW1 2962   2.214   1.324   2.664 -1.5565  0.9954 -0.0241
  741SOL    HW2 2963   2.232   1.279   2.812  2.0576 -0.3984  0.2992
  741SOL     MW 2964   2.256   1.278   2.726  0.1684 -0.2444 -0.3501
  742SOL     OW 2965   1.549   1.260   2.203 -0.4485  0.1448  0.1099
  742SOL    HW1 2966   1.483   1.195   2.182 -1.2127  0.4110  0.5640
  742SOL    HW2 2967   1.569   1.245   2.296 -1.1994  0.6786  1.9277
  742SOL     MW 2968   1.543   1.249   2.212 -0.6484  0.2503  0.4097
  743SOL     OW 2969   2.528   1.262   2.795  0.0851  0.2131 -0.2866
  743SOL    HW1 2970   2.435   1.271   2.780 -0.4107 -0.9641  2.0680
  743SOL    HW2 2971   2.538   1.168   2.846  1.0234 -1.0579  1.9873
  743SOL     MW 2972   2.517   1.250   2.800  0.1435 -0.1099  0.3241
  744SOL     OW 2973   2.721   0.951   1.769 -0.1687  0.2247 -0.2100
  744SOL    HW1 2974   2.640   0.995   1.808 -0.6692  0.4114 -1.8625
  744SOL    HW2 2975   2.700   0.927   1.677 -1.6953 -1.8781 -0.6198
  744SOL     MW 2976   2.707   0.954   1.762 -0.4361 -0.0281 -0.4821
  745SOL     OW 2977   1.751   0.425   2.519 -0.3050  0.5703 -0.0106
  745SOL    HW1 2978   1.767   0.498   2.455 -0.2842 -1.3628  0.9312
  745SOL    HW2 2979   1.659   0.413   2.510  0.3189 -0.2026 -2.8590
  745SOL     MW 2980   1.741   0.433   2.509 -0.2199  0.2133 -0.2621
  746SOL     OW 2981   1.515   1.420   1.639  0.6026  0.1566 -0.1537
  746SOL    HW1 2982   1.593   1.475   1.655  2.0409  0.6867 -0.1051
  746SOL    HW2 2983   1.484   1.376   1.724  1.5904 -1.0433  1.4969
  746SOL     MW 2984   1.521   1.421   1.652  0.9227  0.0682  0.0705
  747SOL     OW 2985   2.526   1.127   1.844  0.3200 -0.7887 -0.3608
  747SOL    HW1 2986   2.435   1.134   1.831  0.2775 -2.4007  0.6053
  747SOL    HW2 2987   2.551   1.203   1.896  0.0572 -1.6594 -1.4204
  747SOL     MW 2988   2.517   1.138   1.849  0.2797 -1.1162 -0.3731
  748SOL     OW 2989   0.119   0.073   1.816  0.4334 -0.1966  0.0639
  748SOL    HW1 2990   0.173  -0.003   1.827 -0.2244  1.7293  0.0501
  748SOL    HW2 2991   0.101   0.102   1.903 -1.4043 -1.4170  1.2239
  748SOL     MW 2992   0.124   0.067   1.829  0.1041 -0.1035  0.2151
  749SOL     OW 2993   2.396   0.557   2.800 -0.2137  0.6102  0.4616
  749SOL    HW1 2994   2.430   0.625   2.739  2.4445 -0.9712 -1.7864
  749SOL    HW2 2995   2.442   0.550   2.876 -2.1400 -0.7227 -3.0009
  749SOL     MW 2996   2.406   0.565   2.802 -0.1171  0.2257 -0.2918
  750SOL     OW 2997   2.067   3.087   1.959 -0.2867  0.0593  0.2286
  750SOL    HW1 2998   2.107   3.171   1.978 -1.6441 -1.6641  2.2479
  750SOL    HW2 2999   2.147   3.026   1.951  2.8003  0.1967 -4.0468
  750SOL     MW 3000   2.083   3.090   1.960 -0.0585 -0.1500 -0.0690
  751SOL     OW 3001   0.022   0.431   2.319  0.1700  0.1340  0.4367
  751SOL    HW1 3002  -0.056   0.372   2.322 -1.9594  0.4251  0.4150
  751SOL    HW2 3003   0.089   0.392   2.260 -1.0818  1.5598 -0.1306
  751SOL     MW 3004   0.021   0.418   2.311 -0.2761  0.3605  0.3589
  752SOL     OW 3005   2.118   0.848   2.714 -0.7472  0.0507  0.3141
  752SOL    HW1 3006   2.198   0.897   2.699  0.9737 -1.5333 -0.8152
  752SOL    HW2 3007   2.122   0.826   2.805  2.8133 -0.7953 -1.0196
  752SOL     MW 3008   2.129   0.852   2.724 -0.0503 -0.2699 -0.0108
  753SOL     OW 3009   2.880   0.290   2.328  0.3007 -0.5499  0.4482
  753SOL    HW1 3010   2.814   0.222   2.303  0.3619 -0.8752 -0.1867
  753SOL    HW2 3011   2.822   0.366   2.353 -3.3557 -1.3214 -0.7614
  753SOL     MW 3012   2.863   0.291   2.328 -0.1737 -0.6946  0.2048
  754SOL     OW 3013   2.238   3.001   2.685  0.1065 -0.2841 -0.0763
  754SOL    HW1 3014   2.237   3.003   2.584  0.8656  1.2468 -0.5027
  754SOL    HW2 3015   2.295   2.926   2.709 -1.4938 -0.0227 -1.2317
  754SOL     MW 3016   2.246   2.992   2.675 -0.0045 -0.0476 -0.2850
  755SOL     OW 3017   2.723   1.578   2.482  0.0766  0.1909 -0.3997
  755SOL    HW1 3018   2.734   1.522   2.558 -1.1080 -1.1821 -0.1007
  755SOL    HW2 3019   2.731   1.660   2.536 -2.9972  2.2699  0.6754
  755SOL     MW 3020   2.726   1.582   2.499 -0.4852  0.2840 -0.2184
  756SOL     OW 3021   2.255   1.313   2.983 -0.0758  0.2894  1.0592
  756SOL    HW1 3022   2.310   1.391   2.984 -0.6010  0.6708 -1.9756
  756SOL    HW2 3023   2.326   1.246   3.004  2.3917  3.4368  1.3863
  756SOL     MW 3024   2.271   1.314   2.986  0.1805  0.7550  0.7019
  757SOL     OW 3025   2.102   0.987   1.634  0.1648  0.7941  0.6427
  757SOL    HW1 3026   2.124   0.893   1.623  0.3505 -0.8515  3.2707
  757SOL    HW2 3027   2.005   0.992   1.619  0.5752  1.3145 -0.4092
  757SOL     MW 3028   2.092   0.975   1.631  0.2434  0.6457  0.8507
  758SOL     OW 3029   2.195   1.787   2.660 -0.2302  0.5331  0.1939
  758SOL    HW1 3030   2.193   1.834   2.576 -0.1200 -0.4086 -1.0764
  758SOL    HW2 3031   2.291   1.763   2.656 -0.7567  2.4830  1.3568
  758SOL     MW 3032   2.208   1.790   2.648 -0.2851  0.6661  0.1798
  759SOL     OW 3033   1.563   1.321   2.732 -0.4591 -0.5395 -0.3102
  759SOL    HW1 3034   1.547   1.396   2.675 -0.8845 -0.1073  0.4249
  759SOL    HW2 3035   1.611   1.354   2.803 -0.9605 -0.4661  0.2352
  759SOL     MW 3036   1.567   1.335   2.734 -0.5814 -0.4728 -0.1413
  760SOL     OW 3037   2.610   1.952   2.731 -0.7318  0.4224  0.1699
  760SOL    HW1 3038   2.577   1.880   2.691 -0.9302 -0.2812 -0.5028
  760SOL    HW2 3039   2.628   2.019   2.663  0.9984  0.5131 -1.7274
  760SOL     MW 3040   2.608   1.952   2.716 -0.5297  0.3415 -0.1692
  761SOL     OW 3041   2.089   0.435   2.471 -0.5053 -0.7115  0.4086
  761SOL    HW1 3042   2.026   0.370   2.480  3.8772 -2.1282 -3.5100
  761SOL    HW2 3043   2.101   0.458   2.567  0.8461 -0.4678  1.4404
  761SOL     MW 3044   2.083   0.430   2.485  0.2513 -0.8663  0.0277
  762SOL     OW 3045   0.008   0.193   2.058 -0.4263 -0.3225 -0.3533
  762SOL    HW1 3046  -0.025   0.144   2.137  1.6159  0.8822  1.9979
  762SOL    HW2 3047  -0.039   0.280   2.044  1.2820  2.0730  1.7619
  762SOL     MW 3048  -0.003   0.198   2.066  0.0686  0.1525  0.2360
  763SOL     OW 3049   2.367   1.105   2.377 -0.0098 -0.6570 -0.3764
  763SOL    HW1 3050   2.385   1.076   2.288 -0.2224  3.0100  0.5565
  763SOL    HW2 3051   2.425   1.180   2.379 -0.6296 -1.2119 -3.0295
  763SOL     MW 3052   2.377   1.111   2.366 -0.1196 -0.2464 -0.6034
  764SOL     OW 3053   0.382   0.196   2.799 -0.1437  0.4099 -0.6340
  764SOL    HW1 3054   0.286   0.189   2.794 -0.3875  0.1075  1.0163
  764SOL    HW2 3055   0.401   0.258   2.873  2.9042  0.7897 -0.3414
  764SOL     MW 3056   0.372   0.203   2.808  0.2263  0.4201 -0.3776
  765SOL     OW 3057   2.664   0.082   2.280 -0.2895 -0.0407 -0.2630
  765SOL    HW1 3058   2.614   0.060   2.200  0.4224 -0.2575 -0.3275
  765SOL    HW2 3059   2.720   0.007   2.292 -1.6486  0.4952  0.3899
  765SOL     MW 3060   2.665   0.069   2.271 -0.3749  0.0014 -0.1854
  766SOL     OW 3061   1.864   3.037   2.118 -0.1741  0.1451 -0.0260
  766SOL    HW1 3062   1.957   3.038   2.092 -0.6170 -1.7131 -2.5485
  766SOL    HW2 3063   1.828   2.969   2.059  2.3320  1.6424 -2.7000
  766SOL     MW 3064   1.871   3.028   2.107  0.0981  0.0975 -0.7116
  767SOL     OW 3065   2.689   0.659   1.925  0.0497 -0.4941  0.4491
  767SOL    HW1 3066   2.718   0.728   1.989  1.1382  1.0171  1.5448
  767SOL    HW2 3067   2.595   0.667   1.931 -3.1888 -3.5601  0.9302
  767SOL     MW 3068   2.681   0.670   1.934 -0.2339 -0.6993  0.6571
  768SOL     OW 3069   0.078   1.529   2.987  0.4544  0.0155  0.5717
  768SOL    HW1 3070   0.096   1.501   3.079  1.4407 -0.7815 -0.1893
  768SOL    HW2 3071   0.116   1.467   2.929 -0.4793 -2.3067  0.4181
  768SOL     MW 3072   0.085   1.517   2.992  0.4614 -0.3961  0.4511
  769SOL     OW 3073   2.337   0.664   2.326 -0.1510  0.0516 -0.5677
  769SOL    HW1 3074   2.261   0.616   2.304 -3.7740  1.1571 -0.1784
  769SOL    HW2 3075   2.401   0.620   2.271 -0.9135 -1.8961  0.3087
  769SOL     MW 3076   2.336   0.652   2.316 -0.7296 -0.0595 -0.4007
  770SOL     OW 3077   0.042   1.676   2.609  0.4303  0.6302 -0.3378
  770SOL    HW1 3078  -0.047   1.692   2.653 -0.4813 -0.4237  2.3657
  770SOL    HW2 3079   0.078   1.597   2.663  0.7340  1.5527 -0.3441
  770SOL     MW 3080   0.035   1.668   2.622  0.3501  0.6128  0.0181
  771SOL     OW 3081   3.068   0.689   1.951  0.1968  0.1750 -0.0991
  771SOL    HW1 3082   3.012   0.682   1.865 -2.6056  0.3477 -0.8659
  771SOL    HW2 3083   3.147   0.647   1.928 -0.7895 -1.8431  0.2998
  771SOL     MW 3084   3.071   0.682   1.937 -0.3031 -0.0685 -0.1477
  772SOL     OW 3085   3.095   0.017   2.275  0.2605  0.1632 -0.5645
  772SOL    HW1 3086   3.009  -0.018   2.305 -2.0692 -3.1995 -0.6746
  772SOL    HW2 3087   3.156  -0.054   2.249  1.1707 -0.2939  1.5515
  772SOL     MW 3088   3.091   0.003   2.275  0.0732 -0.3408 -0.2998
  773SOL     OW 3089   2.417   2.824   2.753 -0.3176 -0.4418  0.0421
  773SOL    HW1 3090   2.424   2.744   2.697 -1.2939  0.6440  0.3216
  773SOL    HW2 3091   2.406   2.777   2.835  0.6917 -0.8734  0.9908
  773SOL     MW 3092   2.416   2.807   2.756 -0.3133 -0.3555  0.2042
  774SOL     OW 3093   2.279   1.159   1.739 -0.6288  0.1703  0.2385
  774SOL    HW1 3094   2.262   1.251   1.717  0.5648  1.4338 -1.6391
  774SOL    HW2 3095   2.219   1.106   1.687 -0.7068 -4.6101 -0.4937
  774SOL     MW 3096   2.269   1.164   1.729 -0.4816 -0.2938 -0.1058
  775SOL     OW 3097   2.225   3.012   2.400  0.0890 -0.5623  0.0541
  775SOL    HW1 3098   2.229   3.096   2.353 -3.3948  0.5042  0.0171
  775SOL    HW2 3099   2.309   2.972   2.376 -0.2363 -1.6119  1.1836
  775SOL     MW 3100   2.237   3.018   2.390 -0.4135 -0.5600  0.1983
  776SOL     OW 3101   0.129   1.445   0.136 -0.8293 -0.1296 -0.3430
  776SOL    HW1 3102   0.220   1.399   0.135 -0.9215 -0.1422  1.4603
  776SOL    HW2 3103   0.070   1.373   0.122  2.1397 -0.9857  1.2550
  776SOL     MW 3104   0.133   1.429   0.134 -0.4497 -0.2442  0.1058
  777SOL     OW 3105   3.009   1.066   1.703 -0.1091 -0.3700 -0.2454
  777SOL    HW1 3106   3.015   1.135   1.633  0.8066 -0.1985  0.0224
  777SOL    HW2 3107   2.924   1.020   1.710  0.1591  2.3742 -1.0559
  777SOL     MW 3108   2.998   1.069   1.694  0.0471  0.0147 -0.3170
  778SOL     OW 3109   2.859   0.441   2.758  0.6086  0.2942  0.1409
  778SOL    HW1 3110   2.816   0.460   2.841  0.1884 -1.7981 -3.5161
  778SOL    HW2 3111   2.874   0.522   2.701 -1.4966  1.0397 -1.3466
  778SOL     MW 3112   2.855   0.454   2.761  0.2754  0.1165 -0.5379
  779SOL     OW 3113   2.092   0.563   2.229  0.2779  0.5656 -0.3505
  779SOL    HW1 3114   2.023   0.617   2.201 -1.5381  1.5283  1.9631
  779SOL    HW2 3115   2.073   0.534   2.314  1.5110 -0.5815  0.7467
  779SOL     MW 3116   2.080   0.566   2.236  0.2010  0.5413  0.0995
  780SOL     OW 3117   0.089   0.213   2.762 -0.2764 -0.1880  0.7425
  780SOL    HW1 3118   0.070   0.178   2.850 -0.5991 -0.0056  3.0518
  780SOL    HW2 3119   0.008   0.230   2.713  0.7178 -1.7010 -0.2731
  780SOL     MW 3120   0.076   0.211   2.767 -0.1878 -0.3636  0.9132
  781SOL     OW 3121   3.047   1.316   2.532  0.6538 -0.0411  0.7165
  781SOL    HW1 3122   3.011   1.377   2.466 -1.3014  0.3967  1.6974
  781SOL    HW2 3123   3.081   1.243   2.481 -0.5850 -0.6723  1.2341
  781SOL     MW 3124   3.047   1.314   2.517  0.2324 -0.0667  0.9142
  782SOL     OW 3125   0.736   1.477   3.088  0.8712 -0.5403 -0.5220
  782SOL    HW1 3126   0.671   1.554   3.078 -1.7105 -2.3407  0.0830
  782SOL    HW2 3127   0.793   1.497   3.170  1.2215  0.4629  0.0337
  782SOL     MW 3128   0.735   1.490   3.097  0.5768 -0.6455 -0.3689
  783SOL     OW 3129   2.734   0.503   2.393  0.0233 -0.5352 -0.4378
  783SOL    HW1 3130   2.663   0.508   2.329  0.8360  0.2454 -0.2927
  783SOL    HW2 3131   2.684   0.469   2.470  0.5380  1.8281 -0.0669
  783SOL     MW 3132   2.718   0.499   2.395  0.1985 -0.1204 -0.3697
  784SOL     OW 3133   0.173   0.837   2.807 -0.0228 -0.1136  0.8210
  784SOL    HW1 3134   0.094   0.808   2.757 -0.3143 -0.5857 -0.5518
  784SOL    HW2 3135   0.224   0.899   2.744  2.1910  3.0876 -0.0825
  784SOL     MW 3136   0.169   0.842   2.792  0.2308  0.2465  0.5207
  785SOL     OW 3137   0.413   0.507   2.178  0.3462 -0.3864  0.1014
  785SOL    HW1 3138   0.429   0.550   2.094 -3.6154  0.5504 -1.0500
  785SOL    HW2 3139   0.336   0.456   2.164 -0.8525  2.0387  0.2107
  785SOL     MW 3140   0.405   0.506   2.165 -0.3347  0.0571 -0.0361
  786SOL     OW 3141   1.980   0.347   2.947  0.0891  0.9316  0.7414
  786SOL    HW1 3142   1.952   0.399   3.018 -1.3362  2.5762 -1.0781
  786SOL    HW2 3143   2.021   0.408   2.886  2.6487  0.1456  1.3639
  786SOL     MW 3144   1.982   0.362   2.948  0.2387  1.0449  0.5835
  787SOL     OW 3145   2.415   0.203   2.889  0.1406  0.1773 -0.8076
  787SOL    HW1 3146   2.468   0.130   2.851 -0.3000 -1.6046 -1.2058
  787SOL    HW2 3147   2.473   0.241   2.954  3.8334  1.1626  1.2387
  787SOL     MW 3148   2.430   0.199   2.892  0.5697  0.0722 -0.5901
  788SOL     OW 3149   2.853   3.010   2.367 -0.1145 -0.2088  0.8555
  788SOL    HW1 3150   2.860   3.010   2.460  2.4851  3.2756 -0.5816
  788SOL    HW2 3151   2.870   2.918   2.358 -4.5976 -1.6313 -1.6929
  788SOL     MW 3152   2.856   2.998   2.378 -0.3630  0.0633  0.3297
  789SOL     OW 3153   0.080   0.207   3.037 -0.1744  0.6848 -0.2260
  789SOL    HW1 3154   0.001   0.159   3.076 -1.0845  1.7036  2.1672
  789SOL    HW2 3155   0.044   0.284   2.990 -1.2694 -0.7554 -3.8128
  789SOL     MW 3156   0.065   0.211   3.036 -0.4389  0.6292 -0.3834
  790SOL     OW 3157   0.007   1.076   2.434 -0.1133  0.3430  0.0198
  790SOL    HW1 3158  -0.033   1.017   2.500  0.3670 -2.3833  3.4337
  790SOL    HW2 3159  -0.045   1.074   2.353  1.8075  0.3071 -1.1373
  790SOL     MW 3160  -0.005   1.068   2.432  0.2035 -0.0215  0.3175
  791SOL     OW 3161   2.602   0.402   2.640  0.1742 -0.2604 -0.3425
  791SOL    HW1 3162   2.538   0.447   2.688  2.7556  0.6300  0.9293
  791SOL    HW2 3163   2.686   0.426   2.685 -0.4734 -1.7018 -0.9837
  791SOL     MW 3164   2.605   0.411   2.653  0.4293 -0.3331 -0.2593
  792SOL     OW 3165   2.350   0.355   2.392 -0.1372 -0.1437 -0.0025
  792SOL    HW1 3166   2.292   0.430   2.391  1.4967  1.7162  0.4765
  792SOL    HW2 3167   2.350   0.342   2.483 -0.8961  0.2830  0.9611
  792SOL     MW 3168   2.342   0.363   2.404 -0.0218  0.1580  0.1878
  793SOL     OW 3169   1.847   1.118   1.960 -0.9720 -0.3339  0.3235
  793SOL    HW1 3170   1.816   1.141   1.868  0.3333 -0.7284 -0.9476
  793SOL    HW2 3171   1.927   1.064   1.948  0.1388 -3.0433 -1.2013
  793SOL     MW 3172   1.854   1.114   1.946 -0.6533 -0.7434 -0.0454
  794SOL     OW 3173   1.421   2.267   0.138  0.0142 -0.4793  0.5496
  794SOL    HW1 3174   1.453   2.326   0.066  2.5020  0.0595 -1.6952
  794SOL    HW2 3175   1.489   2.277   0.205 -2.3752 -3.6966 -0.4693
  794SOL     MW 3176   1.435   2.276   0.137  0.0272 -0.8327  0.1190
  795SOL     OW 3177   2.336   1.024   2.627  0.1169 -0.7503  0.0984
  795SOL    HW1 3178   2.329   1.118   2.659  0.6637  0.2565  0.8060
  795SOL    HW2 3179   2.351   1.044   2.530  0.2868 -2.2464 -1.0516
  795SOL     MW 3180   2.337   1.039   2.619  0.2114 -0.8149  0.0400
  796SOL     OW 3181   0.304   0.585   2.765 -0.0767 -0.0412 -0.4871
  796SOL    HW1 3182   0.267   0.672   2.783 -2.4871 -3.5359  0.7140
  796SOL    HW2 3183   0.239   0.538   2.713 -1.1045  0.7750 -3.5857
  796SOL     MW 3184   0.291   0.590   2.761 -0.5304 -0.3946 -0.7375
  797SOL     OW 3185   2.616   0.111   2.552 -0.0662 -0.1139 -0.5866
  797SOL    HW1 3186   2.605   0.197   2.571  0.3793 -1.4640 -4.3238
  797SOL    HW2 3187   2.604   0.119   2.452 -0.8036  0.6163 -0.9273
  797SOL     MW 3188   2.613   0.124   2.541 -0.1047 -0.1957 -1.1246
  798SOL     OW 3189   2.293   0.121   2.240 -0.0074 -0.2755 -0.2124
  798SOL    HW1 3190   2.306   0.208   2.285 -1.4733 -0.1760  1.9950
  798SOL    HW2 3191   2.377   0.093   2.198  0.9368  0.1048 -2.0339
  798SOL     MW 3192   2.306   0.129   2.240 -0.0762 -0.2122 -0.1615
  799SOL     OW 3193   2.536   2.960   3.078 -0.7202  0.0695  0.2100
  799SOL    HW1 3194   2.473   2.885   3.077  1.2588 -1.5589 -0.1189
  799SOL    HW2 3195   2.488   3.039   3.112  1.2811  0.2919 -0.5744
  799SOL     MW 3196   2.521   2.961   3.082 -0.1950 -0.1160  0.0631
  800SOL     OW 3197   1.943   0.005   1.702 -0.2607  0.8533  0.1675
  800SOL    HW1 3198   1.870  -0.059   1.697 -0.5787  0.2246 -1.1095
  800SOL    HW2 3199   1.981  -0.009   1.785  2.1687 -0.6810  0.2070
  800SOL     MW 3200   1.939  -0.006   1.712  0.0179  0.5679  0.0042
  801SOL     OW 3201   2.780   1.305   2.619 -0.1092  0.1481 -0.5901
  801SOL    HW1 3202   2.734   1.224   2.625  0.3650  2.6664  0.2646
  801SOL    HW2 3203   2.879   1.290   2.610  0.5357  0.6358  0.5239
  801SOL     MW 3204   2.787   1.292   2.618  0.0384  0.5447 -0.3304
  802SOL     OW 3205   2.627   1.518   2.745 -0.3916 -0.3178  0.2229
  802SOL    HW1 3206   2.622   1.419   2.731 -1.1573  0.2737  1.1731
  802SOL    HW2 3207   2.710   1.538   2.792  2.3211 -0.8088 -0.0743
  802SOL     MW 3208   2.638   1.508   2.749 -0.1347 -0.3045  0.3091
  803SOL     OW 3209   2.266   1.346   1.985 -0.6122  0.5714 -0.9468
  803SOL    HW1 3210   2.250   1.328   2.083 -1.4297  1.9924  2.2257
  803SOL    HW2 3211   2.276   1.259   1.951 -0.4119 -0.7685  2.6978
  803SOL     MW 3212   2.265   1.332   1.994 -0.6936  0.5821 -0.0474
  804SOL     OW 3213   2.298   0.052   3.079 -0.3371 -0.2535 -0.1359
  804SOL    HW1 3214   2.219   0.112   3.101 -2.8559  0.7948 -0.0168
  804SOL    HW2 3215   2.331   0.091   2.999  0.5915  1.2639  1.4846
  804SOL     MW 3216   2.292   0.065   3.071 -0.5469  0.0850  0.0936
  805SOL     OW 3217   2.671   1.031   2.585 -0.0973  0.3577 -0.2239
  805SOL    HW1 3218   2.646   1.069   2.501 -3.6964 -2.2413 -0.3260
  805SOL    HW2 3219   2.763   0.995   2.567  0.4160 -1.4149 -0.7399
  805SOL     MW 3220   2.680   1.032   2.571 -0.5044 -0.2191 -0.3055
  806SOL     OW 3221   2.522   0.468   2.226 -0.1481  0.1893  0.5841
  806SOL    HW1 3222   2.457   0.418   2.280 -2.1794 -3.3554 -2.8116
  806SOL    HW2 3223   2.484   0.468   2.140  1.1013  1.0429  2.3560
  806SOL     MW 3224   2.509   0.461   2.222 -0.2512 -0.1658  0.3698
  807SOL     OW 3225   0.044   1.120   2.011  0.2537 -0.5241  0.5932
  807SOL    HW1 3226   0.076   1.033   1.986  1.2770 -1.2922  5.0013
  807SOL    HW2 3227  -0.037   1.092   2.064 -3.3396 -2.2607  0.6680
  807SOL     MW 3228   0.038   1.105   2.015 -0.0854 -0.8545  1.1847
  808SOL     OW 3229   2.544   3.097   2.789 -0.0509  0.4972 -0.0876
  808SOL    HW1 3230   2.499   3.012   2.772 -0.4464  1.8258 -0.7424
  808SOL    HW2 3231   2.576   3.125   2.700 -1.8015  0.7379 -2.6040
  808SOL     MW 3232   2.542   3.089   2.775 -0.3340  0.7043 -0.5060
  809SOL     OW 3233   2.575   1.290   2.403 -0.0390  0.0533 -0.4770
  809SOL    HW1 3234   2.612   1.312   2.485  0.1233 -4.3757  1.0055
  809SOL    HW2 3235   2.646   1.284   2.335  1.1768 -0.8511  0.2853
  809SOL     MW 3236   2.589   1.292   2.405  0.1428 -0.6504 -0.1808
  810SOL     OW 3237   2.206   1.277   2.231  0.1663 -0.2963  0.3784
  810SOL    HW1 3238   2.268   1.213   2.274  1.9655 -2.1523 -0.4719
  810SOL    HW2 3239   2.125   1.224   2.225 -0.3461 -0.9302 -0.0662
  810SOL     MW 3240   2.203   1.262   2.236  0.3361 -0.6248  0.2076
  811SOL     OW 3241   1.545   0.150   2.316 -0.0077 -0.0374 -0.1183
  811SOL    HW1 3242   1.603   0.081   2.343  0.8452 -0.7684  1.1283
  811SOL    HW2 3243   1.544   0.138   2.216 -1.7769  2.8092 -1.0543
  811SOL     MW 3244   1.553   0.139   2.306 -0.1286  0.2417 -0.0773
  812SOL     OW 3245   1.492   2.880   2.107  0.5673 -0.1442  0.1006
  812SOL    HW1 3246   1.574   2.873   2.054 -2.2178  0.0152  2.6366
  812SOL    HW2 3247   1.508   2.827   2.182  0.0398  1.6979 -0.3562
  812SOL     MW 3248   1.505   2.872   2.110  0.1303  0.1199  0.3749
  813SOL     OW 3249   1.876   0.717   2.171 -0.2586 -0.8361 -0.2898
  813SOL    HW1 3250   1.836   0.631   2.182  1.2392  3.3646  0.3386
  813SOL    HW2 3251   1.873   0.761   2.258 -2.1091  2.0841 -0.9985
  813SOL     MW 3252   1.870   0.711   2.184 -0.3051  0.1034 -0.3004
  814SOL     OW 3253   2.730   1.273   1.601 -0.2153  0.1087  0.0988
  814SOL    HW1 3254   2.688   1.205   1.656  0.5146 -1.4356  2.2142
  814SOL    HW2 3255   2.786   1.229   1.535  3.4082 -0.3219 -3.1445
  814SOL     MW 3256   2.732   1.259   1.599  0.3591 -0.1519 -0.0500
  815SOL     OW 3257   2.494   1.669   2.326 -0.5131 -0.2833 -0.4092
  815SOL    HW1 3258   2.419   1.627   2.274 -3.2269 -0.7158 -2.8379
  815SOL    HW2 3259   2.566   1.614   2.315 -2.1793  0.3323  3.4066
  815SOL     MW 3260   2.493   1.656   2.318 -1.0910 -0.2592 -0.2262
  816SOL     OW 3261   0.782   0.676   2.778 -0.0998  0.1976  0.2460
  816SOL    HW1 3262   0.793   0.595   2.823  0.4180 -2.2481 -0.0524
  816SOL    HW2 3263   0.689   0.701   2.769  0.3239  0.5116  1.8245
  816SOL     MW 3264   0.771   0.668   2.783  0.0244 -0.0836  0.4149
  817SOL     OW 3265   3.075   1.254   1.500  0.4545  0.6881  0.0203
  817SOL    HW1 3266   3.166   1.255   1.530  1.4604  0.4031 -0.9588
  817SOL    HW2 3267   3.050   1.336   1.459  0.2899 -3.9800 -0.8985
  817SOL     MW 3268   3.084   1.265   1.499  0.5655  0.0346 -0.2301
  818SOL     OW 3269   1.918   1.044   2.669 -0.1714  0.1014  0.2033
  818SOL    HW1 3270   1.894   1.037   2.577  2.3552  1.0502  0.4719
  818SOL    HW2 3271   1.990   0.980   2.678  2.3561  1.2428  0.9921
  818SOL     MW 3272   1.924   1.035   2.658  0.4954  0.3772  0.3428
  819SOL     OW 3273   1.906   0.209   2.467 -0.1073  0.1016  0.2268
  819SOL    HW1 3274   1.827   0.269   2.482  0.4492 -2.0943 -1.4558
  819SOL    HW2 3275   1.960   0.200   2.550  0.5778 -2.4741 -1.9478
  819SOL     MW 3276   1.903   0.216   2.480  0.0565 -0.5280 -0.2821
  820SOL     OW 3277   2.469   1.697   2.614  0.0321 -0.2989 -0.1747
  820SOL    HW1 3278   2.536   1.638   2.658 -1.0834 -0.9925 -1.3068
  820SOL    HW2 3279   2.487   1.700   2.520 -2.7314  0.7930 -1.0492
  820SOL     MW 3280   2.480   1.690   2.607 -0.4797 -0.2464 -0.4394
  821SOL     OW 3281   2.563   1.390   1.965  0.0976 -0.6014 -0.2648
  821SOL    HW1 3282   2.615   1.465   1.920  0.7263  1.6041  2.3774
  821SOL    HW2 3283   2.490   1.438   1.998  2.2442  1.1890  1.1765
  821SOL     MW 3284   2.560   1.406   1.963  0.4638 -0.0742  0.2740
  822SOL     OW 3285   2.740   2.627   1.477  0.3906 -0.4577  0.5968
  822SOL    HW1 3286   2.785   2.652   1.560 -2.7179  1.1829 -0.2945
  822SOL    HW2 3287   2.711   2.702   1.433  0.9128 -2.2147 -1.6849
  822SOL     MW 3288   2.742   2.640   1.482  0.0494 -0.4731  0.1781
  823SOL     OW 3289   2.266   0.514   1.738  0.7716 -0.2625 -0.1687
  823SOL    HW1 3290   2.341   0.470   1.690 -0.2850 -0.4239 -0.3036
  823SOL    HW2 3291   2.200   0.449   1.753 -1.9932  0.8018 -0.1130
  823SOL     MW 3292   2.267   0.500   1.733  0.2674 -0.1434 -0.1791
  824SOL     OW 3293   2.100   1.407   2.575 -0.1293  0.1610  0.2366
  824SOL    HW1 3294   2.156   1.457   2.512 -1.4615 -0.1993 -0.8777
  824SOL    HW2 3295   2.055   1.472   2.628 -0.4789 -0.0202 -0.9926
  824SOL     MW 3296   2.101   1.422   2.574 -0.3512  0.0895 -0.0726
  825SOL     OW 3297   1.982   2.566   0.279 -0.2857 -0.2517  0.3074
  825SOL    HW1 3298   1.965   2.501   0.348 -1.6939 -1.6010 -1.3274
  825SOL    HW2 3299   2.022   2.511   0.208  2.4342  0.7386 -2.1317
  825SOL     MW 3300   1.985   2.550   0.279 -0.1126 -0.2990 -0.2301
  826SOL     OW 3301   1.899   2.386   0.494  0.4091  0.1003 -0.3973
  826SOL    HW1 3302   1.872   2.298   0.534 -2.8476 -2.3607 -1.9240
  826SOL    HW2 3303   1.862   2.443   0.559 -0.2255  0.6034 -0.5838
  826SOL     MW 3304   1.891   2.382   0.508 -0.1043 -0.1581 -0.6233
  827SOL     OW 3305   1.926   2.230   0.948  0.6715 -0.1672  0.7965
  827SOL    HW1 3306   1.882   2.293   0.889 -2.2461 -0.9518  0.4746
  827SOL    HW2 3307   1.861   2.164   0.941  0.3008 -1.2093 -1.9136
  827SOL     MW 3308   1.911   2.230   0.939  0.2376 -0.4082  0.3965
  828SOL     OW 3309   0.052   2.614   0.565  0.4243  0.1724 -0.1521
  828SOL    HW1 3310   0.129   2.646   0.521  2.0869  0.2897  1.0409
  828SOL    HW2 3311  -0.019   2.644   0.510  0.3114  0.7656  4.3223
  828SOL     MW 3312   0.053   2.622   0.552  0.6288  0.2661  0.5956
  829SOL     OW 3313   2.914   2.941   1.231  0.4909 -0.4274  0.1851
  829SOL    HW1 3314   2.845   2.945   1.162 -1.0162  0.9928  1.0926
  829SOL    HW2 3315   2.972   2.870   1.202  1.8985  0.2568  0.1195
  829SOL     MW 3316   2.912   2.932   1.218  0.4777 -0.1497  0.2962
  830SOL     OW 3317   2.495   2.860   2.012 -0.0575  0.1314 -0.5073
  830SOL    HW1 3318   2.413   2.902   1.986 -0.4826 -2.1657 -0.5235
  830SOL    HW2 3319   2.535   2.827   1.929 -2.5233 -0.6586  0.8715
  830SOL     MW 3320   2.490   2.861   1.998 -0.4389 -0.2759 -0.3275
  831SOL     OW 3321   2.411   2.417   1.317  0.5774 -0.6090 -0.0990
  831SOL    HW1 3322   2.375   2.357   1.384 -2.6457  2.1609 -1.4493
  831SOL    HW2 3323   2.502   2.384   1.295 -1.4659 -1.6113 -0.9327
  831SOL     MW 3324   2.418   2.404   1.323 -0.1174 -0.3758 -0.3872
  832SOL     OW 3325   2.416   2.190   1.912 -0.0560  0.1201  0.1667
  832SOL    HW1 3326   2.443   2.277   1.953 -0.9112  0.4860 -3.8818
  832SOL    HW2 3327   2.499   2.141   1.914  1.1479 -0.4892  0.5722
  832SOL     MW 3328   2.430   2.195   1.918 -0.0100  0.0880 -0.3140
  833SOL     OW 3329   1.781   2.463   0.890 -0.0546  0.3621  0.0423
  833SOL    HW1 3330   1.704   2.404   0.901  2.1007  3.9446  0.6565
  833SOL    HW2 3331   1.770   2.523   0.967 -3.1901 -1.6323 -4.4395
  833SOL     MW 3332   1.769   2.463   0.902 -0.1839  0.5716 -0.4680
  834SOL     OW 3333   2.227   2.489   0.595  0.6025  0.1492  0.6042
  834SOL    HW1 3334   2.171   2.445   0.658 -1.4363 -1.8905 -0.2935
  834SOL    HW2 3335   2.209   2.442   0.517 -2.5746 -1.3192  0.2381
  834SOL     MW 3336   2.217   2.477   0.593 -0.0857 -0.3137  0.4375
  835SOL     OW 3337   1.768   2.586   0.645 -0.8642  0.5595  0.7114
  835SOL    HW1 3338   1.749   2.531   0.719  0.7267  1.8546 -1.0280
  835SOL    HW2 3339   1.846   2.645   0.672  0.6090  2.6955 -0.2346
  835SOL     MW 3340   1.776   2.587   0.658 -0.4599  1.0122  0.3571
  836SOL     OW 3341   1.926   2.207   1.614 -0.0747 -0.0290  0.3729
  836SOL    HW1 3342   1.999   2.230   1.671  0.4488 -0.8552 -0.9192
  836SOL    HW2 3343   1.853   2.255   1.656  0.2788  2.1655 -0.8639
  836SOL     MW 3344   1.926   2.216   1.627  0.0410  0.1515  0.0392
  837SOL     OW 3345   2.148   0.198   0.680  0.0252  0.0269 -0.0875
  837SOL    HW1 3346   2.057   0.203   0.670  1.8569  0.8559 -0.6379
  837SOL    HW2 3347   2.178   0.132   0.611 -0.5915 -0.3216 -3.4649
  837SOL     MW 3348   2.140   0.190   0.669  0.1855  0.0903 -0.6057
  838SOL     OW 3349   2.936   2.149   0.864 -0.0750 -0.1420 -0.1333
  838SOL    HW1 3350   2.893   2.111   0.946 -1.3808  1.1742 -0.2441
  838SOL    HW2 3351   2.970   2.071   0.823  2.2141 -1.0735  1.8780
  838SOL     MW 3352   2.935   2.133   0.869  0.0548 -0.0912  0.1175
  839SOL     OW 3353   1.552   2.339   0.937 -0.2819  0.1540 -0.3942
  839SOL    HW1 3354   1.525   2.434   0.928  0.4141  1.5410  1.1073
  839SOL    HW2 3355   1.553   2.312   1.031 -0.2079  2.3678 -0.7161
  839SOL     MW 3356   1.549   2.348   0.948 -0.1803  0.6291 -0.2386
  840SOL     OW 3357   2.294   2.116   2.396  0.1179 -0.4519 -0.1199
  840SOL    HW1 3358   2.259   2.176   2.324  2.0063  2.3865 -1.5299
  840SOL    HW2 3359   2.358   2.159   2.453  1.3059 -1.2728  0.6186
  840SOL     MW 3360   2.297   2.129   2.394  0.5238 -0.1857 -0.2085
  841SOL     OW 3361   2.157   2.440   0.103  0.6788 -0.0704 -0.1356
  841SOL    HW1 3362   2.217   2.469   0.038  1.6865 -1.4351  0.2071
  841SOL    HW2 3363   2.106   2.367   0.065  0.7013 -0.4147 -1.6591
  841SOL     MW 3364   2.158   2.435   0.090  0.8148 -0.2959 -0.2914
  842SOL     OW 3365   2.682   1.940   1.592 -0.0346  0.6066  0.0426
  842SOL    HW1 3366   2.662   1.850   1.596 -1.2042  1.3201  1.0163
  842SOL    HW2 3367   2.623   1.978   1.531 -0.1859  1.0441 -0.6938
  842SOL     MW 3368   2.671   1.933   1.585 -0.2089  0.7584  0.0739
  843SOL     OW 3369   2.632   2.763   1.789  0.3813  0.3604  0.0255
  843SOL    HW1 3370   2.714   2.730   1.758  1.7697  1.9275  3.9830
  843SOL    HW2 3371   2.577   2.685   1.764  1.6413 -0.3122  0.2203
  843SOL     MW 3372   2.635   2.749   1.782  0.7307  0.4785  0.5733
  844SOL     OW 3373   2.615   2.271   1.217 -0.0740 -0.5498  0.3565
  844SOL    HW1 3374   2.631   2.308   1.122 -0.4665  2.0762 -1.1103
  844SOL    HW2 3375   2.697   2.305   1.269 -0.0975 -0.4290  0.0764
  844SOL     MW 3376   2.628   2.280   1.211 -0.1289 -0.1874  0.1260
  845SOL     OW 3377   2.849   2.441   0.318 -0.1203  0.0481 -0.1413
  845SOL    HW1 3378   2.788   2.369   0.333 -0.2330  0.1953  1.3920
  845SOL    HW2 3379   2.856   2.494   0.396  3.1120  0.3017  0.3362
  845SOL     MW 3380   2.842   2.438   0.330  0.2913  0.1010  0.1240
  846SOL     OW 3381   1.523   2.864   0.763  0.1261 -0.2510 -0.0117
  846SOL    HW1 3382   1.578   2.919   0.814 -1.5916 -1.5635  1.8228
  846SOL    HW2 3383   1.432   2.888   0.794 -0.3280 -0.3751 -0.8759
  846SOL     MW 3384   1.518   2.874   0.774 -0.1604 -0.4405  0.1163
  847SOL     OW 3385   2.513   1.880   0.155 -0.2780 -0.3076  0.1082
  847SOL    HW1 3386   2.561   1.813   0.212 -1.7308  0.6580 -0.6400
  847SOL    HW2 3387   2.439   1.837   0.104  0.2306 -0.0303 -0.8849
  847SOL     MW 3388   2.510   1.865   0.156 -0.4026 -0.1436 -0.1216
  848SOL     OW 3389   2.536   2.054   1.399 -0.5745 -0.0592 -0.2884
  848SOL    HW1 3390   2.559   2.140   1.357  0.9005 -0.0524 -2.2012
  848SOL    HW2 3391   2.512   2.003   1.321 -0.9801  1.8873 -2.1648
  848SOL     MW 3392   2.536   2.059   1.384 -0.4334  0.1985 -0.7883
  849SOL     OW 3393   1.976   2.755   0.733 -0.9430  0.6009  0.2313
  849SOL    HW1 3394   1.994   2.682   0.799 -1.3686 -1.9515 -0.9455
  849SOL    HW2 3395   2.063   2.759   0.685 -3.2476  1.5056  0.3963
  849SOL     MW 3396   1.990   2.746   0.736 -1.3032  0.3835  0.0978
  850SOL     OW 3397   2.230   1.931   1.646  0.1037 -0.3037  1.1484
  850SOL    HW1 3398   2.139   1.916   1.620 -0.5924  1.6537 -1.8439
  850SOL    HW2 3399   2.228   2.027   1.661 -0.1715 -0.0008  0.1438
  850SOL     MW 3400   2.218   1.942   1.644 -0.0245 -0.0054  0.6211
  851SOL     OW 3401   2.285   2.401   0.338  0.3199 -0.1815 -0.0017
  851SOL    HW1 3402   2.225   2.431   0.266 -0.5641 -1.4976  1.2878
  851SOL    HW2 3403   2.357   2.476   0.344  0.0147 -1.4515  0.4001
  851SOL     MW 3404   2.286   2.415   0.330  0.1630 -0.5227  0.2215
  852SOL     OW 3405   2.365   2.115   0.309 -0.3237 -0.4339 -0.1296
  852SOL    HW1 3406   2.347   2.210   0.316  1.0253 -0.4364 -0.0675
  852SOL    HW2 3407   2.429   2.094   0.250 -1.5440 -2.4488  3.4427
  852SOL     MW 3408   2.371   2.125   0.302 -0.3068 -0.7001  0.3499
  853SOL     OW 3409   2.498   2.439   1.996  0.3411  0.3036 -0.0342
  853SOL    HW1 3410   2.501   2.467   1.900 -2.2472 -0.4508  1.3064
  853SOL    HW2 3411   2.586   2.449   2.033 -3.0715 -0.8455  0.4018
  853SOL     MW 3412   2.510   2.444   1.988 -0.4507  0.0525  0.2002
  854SOL     OW 3413   2.818   2.361   0.756  0.2428  0.1239  0.1623
  854SOL    HW1 3414   2.745   2.314   0.714 -0.7116 -1.5735 -0.0719
  854SOL    HW2 3415   2.870   2.284   0.785 -0.0849 -0.7019 -1.4627
  854SOL     MW 3416   2.815   2.345   0.754  0.0736 -0.2090 -0.0830
  855SOL     OW 3417   2.712   2.233   0.387  0.6041  0.4243 -0.4866
  855SOL    HW1 3418   2.682   2.303   0.451 -0.9790 -0.1993 -2.2547
  855SOL    HW2 3419   2.801   2.196   0.391  2.3041 -1.0296 -1.0494
  855SOL     MW 3420   2.720   2.237   0.396  0.6196  0.1502 -0.7941
  856SOL     OW 3421   2.196   1.941   0.161 -0.2060  0.0429 -0.4521
  856SOL    HW1 3422   2.114   1.952   0.211 -0.6453 -1.1091  0.9241
  856SOL    HW2 3423   2.250   2.013   0.198 -0.5342  0.7875 -0.0514
  856SOL     MW 3424   2.193   1.952   0.172 -0.3073 -0.0109 -0.2176
  857SOL     OW 3425   2.594   1.998   0.489 -1.1360 -0.8302  0.0654
  857SOL    HW1 3426   2.649   2.063   0.436 -1.1326  0.9015  0.8705
  857SOL    HW2 3427   2.510   2.017   0.457  4.3248  2.4908  2.2480
  857SOL     MW 3428   2.590   2.009   0.478 -0.4151 -0.1635  0.4596
  858SOL     OW 3429   2.882   2.648   1.708  0.8181 -0.4713  0.4997
  858SOL    HW1 3430   2.960   2.690   1.741 -1.8846 -0.0870  1.4740
  858SOL    HW2 3431   2.873   2.565   1.752 -2.7906 -1.8326  0.6822
  858SOL     MW 3432   2.891   2.643   1.718 -0.0146 -0.6002  0.6524
  859SOL     OW 3433   2.121   2.568   0.928 -0.7549 -0.0862  0.8548
  859SOL    HW1 3434   2.121   2.503   0.998 -1.0404  1.5196 -1.2555
  859SOL    HW2 3435   2.210   2.562   0.893  0.4824 -1.4159  1.3648
  859SOL     MW 3436   2.133   2.559   0.932 -0.6293 -0.0498  0.6436
  860SOL     OW 3437   2.673   2.593   0.168  0.1486 -0.1654 -0.2217
  860SOL    HW1 3438   2.736   2.544   0.224 -0.8666  1.8174 -3.1984
  860SOL    HW2 3439   2.723   2.671   0.147  1.6609 -1.0467  0.8873
  860SOL     MW 3440   2.688   2.597   0.172  0.2142 -0.0200 -0.4681
  861SOL     OW 3441   1.562   2.148   1.162  0.2007 -0.1449  0.5067
  861SOL    HW1 3442   1.570   2.218   1.224  0.5068  0.1377  0.2076
  861SOL    HW2 3443   1.504   2.085   1.201  0.8731 -0.8714 -0.0581
  861SOL     MW 3444   1.556   2.149   1.175  0.3298 -0.2034  0.3928
  862SOL     OW 3445   2.439   1.774   1.547  0.6527 -0.7472 -0.1064
  862SOL    HW1 3446   2.387   1.829   1.610 -1.4432  3.3768 -0.8778
  862SOL    HW2 3447   2.419   1.816   1.460  0.3061  1.4863 -1.3118
  862SOL     MW 3448   2.429   1.787   1.544  0.3304  0.0916 -0.3672
  863SOL     OW 3449   3.024   1.819   1.056  0.3543 -0.5600  0.5431
  863SOL    HW1 3450   3.086   1.765   1.102  0.7005  0.1560  1.4342
  863SOL    HW2 3451   3.012   1.887   1.124 -1.6691  0.1121  0.3212
  863SOL     MW 3452   3.030   1.821   1.071  0.1330 -0.3769  0.6314
  864SOL     OW 3453   3.061   1.921   0.804 -0.0651 -0.1114  0.0744
  864SOL    HW1 3454   3.038   1.881   0.886 -0.9401 -1.8303 -1.6160
  864SOL    HW2 3455   3.021   1.867   0.731 -1.0632 -3.1070  2.0874
  864SOL     MW 3456   3.052   1.909   0.805 -0.3123 -0.7335  0.1170
  865SOL     OW 3457   2.616   2.150   0.005 -0.0528  0.3942  0.2522
  865SOL    HW1 3458   2.619   2.065   0.046 -2.8045  0.4359  1.4163
  865SOL    HW2 3459   2.559   2.141  -0.072  0.9054  1.8570  0.1221
  865SOL     MW 3460   2.609   2.138   0.000 -0.2894  0.5927  0.3886
  866SOL     OW 3461   2.690   2.325   1.646 -0.1979  0.4685  0.9327
  866SOL    HW1 3462   2.674   2.251   1.704 -2.4900  0.2668  0.4677
  866SOL    HW2 3463   2.707   2.290   1.554  2.5715 -2.2253  2.4021
  866SOL     MW 3464   2.690   2.310   1.642 -0.1349  0.0865  1.0652
  867SOL     OW 3465   0.030   2.717   1.806  0.3852  0.4791  0.1454
  867SOL    HW1 3466   0.069   2.702   1.893  1.4221  0.1124  2.2952
  867SOL    HW2 3467   0.004   2.808   1.802  1.1395 -1.0757  0.1196
  867SOL     MW 3468   0.031   2.727   1.817  0.6216  0.2256  0.4257
  868SOL     OW 3469   2.832   2.582   0.551  0.4245  0.0777 -0.2691
  868SOL    HW1 3470   2.748   2.539   0.569  0.1706 -0.1423  0.6833
  868SOL    HW2 3471   2.809   2.669   0.515 -0.0775 -1.4661  0.0487
  868SOL     MW 3472   2.818   2.588   0.548  0.3248 -0.1550 -0.1015
  869SOL     OW 3473   2.098   2.368   1.162  0.3972 -0.2222 -0.8029
  869SOL    HW1 3474   2.185   2.339   1.125  0.1795  0.2516 -0.0857
  869SOL    HW2 3475   2.036   2.338   1.099  0.0922 -1.0973  1.5485
  869SOL     MW 3476   2.101   2.360   1.149  0.3282 -0.2752 -0.3980
  870SOL     OW 3477   2.155   0.019   0.481 -0.0109  0.2582  0.4140
  870SOL    HW1 3478   2.217   0.044   0.415  0.2747  2.0637 -0.5876
  870SOL    HW2 3479   2.183  -0.069   0.488 -0.2059  0.4887 -1.1020
  870SOL     MW 3480   2.167   0.010   0.473  0.0010  0.5268  0.0819
  871SOL     OW 3481   2.488   2.144   0.942  0.5448  0.3781 -0.1409
  871SOL    HW1 3482   2.446   2.063   0.910  1.5777  2.6134 -1.3281
  871SOL    HW2 3483   2.422   2.192   0.997 -0.1161  0.0393 -0.3549
  871SOL     MW 3484   2.474   2.139   0.945  0.5939  0.6283 -0.3258
  872SOL     OW 3485   1.992   2.560   1.523 -0.4617  0.0914 -0.2391
  872SOL    HW1 3486   1.948   2.596   1.602 -0.4835 -0.7988 -0.0550
  872SOL    HW2 3487   1.944   2.481   1.493 -2.8326  0.7511 -1.0862
  872SOL     MW 3488   1.980   2.554   1.529 -0.7774  0.0610 -0.3266
  873SOL     OW 3489   2.923   2.062   1.917 -0.2787 -0.2192  0.3702
  873SOL    HW1 3490   2.943   2.123   1.987 -0.1522  0.1226  0.3867
  873SOL    HW2 3491   2.996   2.070   1.851  1.8857 -2.1654 -2.4971
  873SOL     MW 3492   2.935   2.071   1.918  0.0235 -0.4309 -0.0059
  874SOL     OW 3493   2.271   1.491   2.392  0.0912  0.6558  0.6523
  874SOL    HW1 3494   2.232   1.418   2.331  0.8652 -0.6660  1.3298
  874SOL    HW2 3495   2.359   1.458   2.407  0.8693 -0.1094 -1.3473
  874SOL     MW 3496   2.278   1.477   2.386  0.2960  0.3805  0.4779
  875SOL     OW 3497   2.330   2.321   1.062 -0.0551 -0.2604  0.1423
  875SOL    HW1 3498   2.371   2.383   0.996  1.4927 -0.3681  0.8895
  875SOL    HW2 3499   2.365   2.364   1.141 -2.4341 -0.0283  0.7556
  875SOL     MW 3500   2.340   2.335   1.064 -0.1648 -0.2440  0.3218
  876SOL     OW 3501   3.017   2.307   1.246  0.6013 -0.3439  0.3460
  876SOL    HW1 3502   3.042   2.329   1.151 -0.3847 -3.4366 -1.6874
  876SOL    HW2 3503   3.099   2.320   1.293 -0.7198 -1.0815  0.8850
  876SOL     MW 3504   3.031   2.311   1.239  0.2969 -0.8493  0.1488
  877SOL     OW 3505   3.031   2.710   0.341 -0.2945  0.5477 -0.6311
  877SOL    HW1 3506   3.088   2.781   0.315 -0.6136 -0.3031 -0.0297
  877SOL    HW2 3507   3.064   2.639   0.289 -0.9373 -0.6450 -0.5670
  877SOL     MW 3508   3.043   2.710   0.331 -0.4214  0.2781 -0.5433
  878SOL     OW 3509   2.400   1.831   1.269  0.0893 -0.0278  0.4804
  878SOL    HW1 3510   2.371   1.744   1.292 -2.8892 -1.7182  1.2218
  878SOL    HW2 3511   2.489   1.820   1.234  3.4919  0.7899  0.2329
  878SOL     MW 3512   2.408   1.818   1.267  0.1453 -0.1429  0.5456
  879SOL     OW 3513   2.673   2.413   0.968  0.3641 -0.2483  0.5179
  879SOL    HW1 3514   2.722   2.486   1.007  1.9572 -0.2660  0.2860
  879SOL    HW2 3515   2.725   2.400   0.889 -2.1621  0.2134  2.6889
  879SOL     MW 3516   2.686   2.421   0.963  0.2410 -0.1897  0.7738
  880SOL     OW 3517   2.610   2.204   0.690  0.2922 -0.0506  0.0283
  880SOL    HW1 3518   2.599   2.191   0.793 -1.0676 -0.7543  2.4113
  880SOL    HW2 3519   2.596   2.115   0.655  1.7129  0.6684 -0.8137
  880SOL     MW 3520   2.607   2.190   0.699  0.3002 -0.0485  0.2316
  881SOL     OW 3521   2.965   2.737   0.788 -0.0117  0.1082  0.4346
  881SOL    HW1 3522   2.962   2.657   0.731  1.8482 -1.4217 -1.9825
  881SOL    HW2 3523   3.057   2.733   0.811 -1.0831  0.8745 -2.5128
  881SOL     MW 3524   2.976   2.726   0.784  0.0924  0.0074 -0.2732
  882SOL     OW 3525   2.243   2.898   1.925 -0.2227 -0.3215  0.0601
  882SOL    HW1 3526   2.239   2.885   1.827  2.8914  0.0447 -0.7081
  882SOL    HW2 3527   2.189   2.832   1.962  2.5795  0.9546 -1.8018
  882SOL     MW 3528   2.236   2.888   1.917  0.5579 -0.1048 -0.2869
  883SOL     OW 3529   2.301   2.218   1.478  0.5076 -0.7850 -0.1282
  883SOL    HW1 3530   2.372   2.152   1.484 -2.5362 -1.4520  0.9742
  883SOL    HW2 3531   2.232   2.182   1.419 -0.1589  0.7790  1.6760
  883SOL     MW 3532   2.301   2.204   1.471  0.0180 -0.6666  0.2553
  884SOL     OW 3533   1.966   1.798   1.069  0.1410 -0.5363 -0.4334
  884SOL    HW1 3534   1.891   1.861   1.051  0.8220 -0.5011 -0.3025
  884SOL    HW2 3535   2.040   1.869   1.077  0.9183  1.4808 -1.9201
  884SOL     MW 3536   1.966   1.816   1.067  0.3334 -0.2655 -0.6123
  885SOL     OW 3537   2.875   2.397   1.845  0.4083  0.1483 -0.6125
  885SOL    HW1 3538   2.964   2.359   1.829  0.3861  0.7866 -0.6074
  885SOL    HW2 3539   2.832   2.373   1.762  1.2333 -1.1625  0.7146
  885SOL     MW 3540   2.881   2.389   1.832  0.5142  0.0596 -0.4368
  886SOL     OW 3541   2.804   2.345   1.395 -0.1285  0.1201  0.1326
  886SOL    HW1 3542   2.889   2.345   1.350  0.7982  0.3421  0.0630
  886SOL    HW2 3543   2.800   2.437   1.427  1.4517  2.1455 -2.0894
  886SOL     MW 3544   2.814   2.357   1.394  0.2022  0.4166 -0.1697
  887SOL     OW 3545   2.258   2.628   1.506 -0.7593  0.4668 -0.0416
  887SOL    HW1 3546   2.301   2.662   1.429 -0.5829  1.4185 -0.3070
  887SOL    HW2 3547   2.163   2.604   1.494 -1.9053  0.7427 -1.7470
  887SOL     MW 3548   2.251   2.629   1.494 -0.8872  0.6288 -0.3016
  888SOL     OW 3549   1.897   2.043   1.392  0.1746 -0.5309  0.2728
  888SOL    HW1 3550   1.979   2.064   1.347  1.9918 -1.9514  0.9379
  888SOL    HW2 3551   1.898   2.099   1.473  1.5068  1.4120 -1.3976
  888SOL     MW 3552   1.908   2.054   1.396  0.5902 -0.4620  0.1401
  889SOL     OW 3553   2.298   2.026   2.098 -0.4259  0.3992 -0.4856
  889SOL    HW1 3554   2.380   1.994   2.139 -1.9868  0.8995 -0.2349
  889SOL    HW2 3555   2.341   2.078   2.033  2.3730 -2.8032  1.2962
  889SOL     MW 3556   2.314   2.029   2.095 -0.2626  0.0427 -0.2174
  890SOL     OW 3557   0.124   2.341   0.118 -0.0765  0.1112 -0.9764
  890SOL    HW1 3558   0.067   2.418   0.098 -0.0897  0.0087 -0.2282
  890SOL    HW2 3559   0.094   2.323   0.210  1.8282 -2.2409  0.9264
  890SOL     MW 3560   0.112   2.349   0.127  0.1731 -0.2127 -0.6266
  891SOL     OW 3561   3.026   2.010   1.279 -0.1542 -0.6574 -0.3109
  891SOL    HW1 3562   3.113   1.990   1.312 -0.1817 -0.8676 -2.4100
  891SOL    HW2 3563   3.009   2.106   1.263 -1.2937 -0.5434 -2.1126
  891SOL     MW 3564   3.035   2.020   1.281 -0.3082 -0.6701 -0.8256
  892SOL     OW 3565   2.423   2.374   2.793 -0.2034 -0.2417 -0.0684
  892SOL    HW1 3566   2.394   2.296   2.838 -0.6128 -1.2642  0.8866
  892SOL    HW2 3567   2.520   2.372   2.813  1.3075 -3.2177  4.2800
  892SOL     MW 3568   2.432   2.364   2.802 -0.0581 -0.7693  0.6314
  893SOL     OW 3569   1.599   2.378   1.314  0.3822 -0.2041  0.0808
  893SOL    HW1 3570   1.526   2.408   1.363  0.6218 -3.7255  0.1202
  893SOL    HW2 3571   1.678   2.377   1.364  0.6837 -0.1272 -0.2445
  893SOL     MW 3572   1.600   2.382   1.327  0.4536 -0.6586  0.0431
  894SOL     OW 3573   2.834   1.856   0.490 -0.7422  0.9182  0.4175
  894SOL    HW1 3574   2.751   1.898   0.508  1.9198 -1.5858 -2.0397
  894SOL    HW2 3575   2.833   1.829   0.399 -1.4314  2.9718 -2.0982
  894SOL     MW 3576   2.823   1.858   0.480 -0.4819  0.8588 -0.2386
  895SOL     OW 3577   2.124   2.116   1.293  0.1997 -0.6676 -0.1898
  895SOL    HW1 3578   2.087   2.182   1.236  0.6848  0.0068 -1.1303
  895SOL    HW2 3579   2.161   2.062   1.224 -3.7559  2.0997  0.7499
  895SOL     MW 3580   2.124   2.118   1.276 -0.2582 -0.2135 -0.1899
  896SOL     OW 3581   2.179   2.784   1.091  0.1388 -0.0944 -0.4056
  896SOL    HW1 3582   2.226   2.757   1.169  0.8429 -0.3601  1.9207
  896SOL    HW2 3583   2.150   2.703   1.035 -0.0532  0.7949  0.0208
  896SOL     MW 3584   2.181   2.770   1.094  0.2064 -0.0121 -0.0424
  897SOL     OW 3585   3.013   2.888   0.095  0.2524  0.1630 -0.2598
  897SOL    HW1 3586   3.089   2.861   0.032 -0.7944  0.6063 -1.0513
  897SOL    HW2 3587   2.942   2.848   0.041  2.7207  3.0387  1.6874
  897SOL     MW 3588   3.014   2.879   0.079  0.4400  0.6009 -0.1073
  898SOL     OW 3589   2.087   0.154   1.405  0.1497  0.3106  0.2360
  898SOL    HW1 3590   2.082   0.055   1.410  0.2877  0.3889  2.6691
  898SOL    HW2 3591   2.087   0.175   1.312 -1.0170 -1.2442  1.0523
  898SOL     MW 3592   2.087   0.144   1.394  0.0139  0.1158  0.6647
  899SOL     OW 3593   2.921   2.967   0.631 -0.6430  0.4761 -0.0494
  899SOL    HW1 3594   2.906   2.908   0.702 -2.0752  0.7902 -1.7550
  899SOL    HW2 3595   2.836   3.003   0.620  0.0473 -0.1286  1.1532
  899SOL     MW 3596   2.908   2.964   0.639 -0.7409  0.4377 -0.1158
  900SOL     OW 3597   0.101   2.423   1.062 -0.0292 -0.4079  0.6417
  900SOL    HW1 3598   0.049   2.497   1.033 -0.1967  2.4553  4.1254
  900SOL    HW2 3599   0.126   2.375   0.980 -0.5250  1.3280  1.7129
  900SOL     MW 3600   0.098   2.426   1.047 -0.1167  0.1989  1.2426
  901SOL     OW 3601   1.771   2.901   1.704 -0.1360 -0.5286  1.0694
  901SOL    HW1 3602   1.834   2.825   1.702 -1.1187 -0.4337  0.6663
  901SOL    HW2 3603   1.713   2.881   1.628  2.8086 -0.8063 -1.3234
  901SOL     MW 3604   1.772   2.889   1.694  0.1229 -0.5527  0.7005
  902SOL     OW 3605   2.693   2.107   1.803  0.2810  0.4300 -0.0298
  902SOL    HW1 3606   2.680   2.049   1.728  1.4664 -0.4490 -2.1570
  902SOL    HW2 3607   2.781   2.094   1.846  0.4544 -0.5152 -0.4998
  902SOL     MW 3608   2.703   2.097   1.799  0.4603  0.1893 -0.3725
  903SOL     OW 3609   1.589   2.776   0.506 -0.0255  0.3165  0.0948
  903SOL    HW1 3610   1.642   2.691   0.527  0.1270 -0.2903  0.8838
  903SOL    HW2 3611   1.569   2.823   0.591  0.2323  0.2292 -2.2229
  903SOL     MW 3612   1.593   2.771   0.520  0.0287  0.2249 -0.1069
  904SOL     OW 3613   2.491   2.520   1.726 -0.0738  0.2407  0.1268
  904SOL    HW1 3614   2.427   2.517   1.660 -0.4820  1.0401 -1.3333
  904SOL    HW2 3615   2.562   2.475   1.685  0.4498  2.5259 -1.2320
  904SOL     MW 3616   2.492   2.514   1.712 -0.0586  0.6477 -0.2451
  905SOL     OW 3617   2.321   2.572   2.176  0.3737 -0.0956  0.3757
  905SOL    HW1 3618   2.393   2.560   2.116  1.1274 -0.8100  0.2860
  905SOL    HW2 3619   2.300   2.479   2.195 -2.3691 -1.4374  0.7500
  905SOL     MW 3620   2.328   2.558   2.170  0.1113 -0.3669  0.4133
  906SOL     OW 3621   2.429   2.514   0.895 -0.2238  0.0188 -0.7133
  906SOL    HW1 3622   2.522   2.475   0.915  0.2601 -1.4126 -0.6662
  906SOL    HW2 3623   2.450   2.608   0.880  1.3825  2.9523 -0.6128
  906SOL     MW 3624   2.444   2.522   0.895  0.0520  0.2170 -0.6939
  907SOL     OW 3625   2.595   2.852   1.334  0.1905 -0.3959  0.5335
  907SOL    HW1 3626   2.642   2.919   1.382 -0.0438 -0.3499  0.6073
  907SOL    HW2 3627   2.630   2.851   1.247  0.6983 -2.6651  0.7859
  907SOL     MW 3628   2.606   2.860   1.329  0.2266 -0.6892  0.5765
  908SOL     OW 3629   2.725   2.392  -0.000 -0.2320  0.2793 -0.0234
  908SOL    HW1 3630   2.697   2.300   0.037  0.4381 -0.1891 -1.5481
  908SOL    HW2 3631   2.704   2.465   0.064  1.6574 -0.8484 -0.4146
  908SOL     MW 3632   2.719   2.389   0.013  0.1057  0.0687 -0.2762
  909SOL     OW 3633   1.716   0.152   1.146 -0.1083 -0.7140 -0.1429
  909SOL    HW1 3634   1.700   0.238   1.101  0.3335 -0.7404  1.6484
  909SOL    HW2 3635   1.809   0.128   1.144  3.2182 -0.6130 -0.5901
  909SOL     MW 3636   1.726   0.160   1.140  0.3889 -0.7042  0.0345
  910SOL     OW 3637   2.329   1.814   0.384  0.3994  0.2146  0.5000
  910SOL    HW1 3638   2.269   1.747   0.424 -0.6685 -0.2323 -1.1908
  910SOL    HW2 3639   2.282   1.849   0.309  0.9011  1.9407  2.0009
  910SOL     MW 3640   2.315   1.809   0.380  0.3247  0.3833  0.4750
  911SOL     OW 3641   2.201   2.229   1.749  0.6176  0.4952 -0.4280
  911SOL    HW1 3642   2.289   2.218   1.785 -1.6037 -0.0090  2.0645
  911SOL    HW2 3643   2.208   2.249   1.658  2.2122  0.3345  0.5537
  911SOL     MW 3644   2.213   2.230   1.742  0.5349  0.4075  0.0304
  912SOL     OW 3645   2.948   1.912   1.525  0.2695  0.6435 -0.2912
  912SOL    HW1 3646   2.982   1.958   1.442 -2.6005 -0.7003 -0.5472
  912SOL    HW2 3647   2.859   1.955   1.544 -0.1988  1.6691  1.4745
  912SOL     MW 3648   2.941   1.924   1.517 -0.1709  0.6015 -0.0920
  913SOL     OW 3649   2.565   3.009   0.383 -0.0376  0.2493  0.2623
  913SOL    HW1 3650   2.640   2.953   0.397 -1.2280 -0.5084 -2.2281
  913SOL    HW2 3651   2.478   2.963   0.397  0.6215 -0.2044 -0.4880
  913SOL     MW 3652   2.563   2.996   0.386 -0.1077  0.0895 -0.1653
  914SOL     OW 3653   2.726   1.730   3.060 -0.6707  0.1403  0.0136
  914SOL    HW1 3654   2.742   1.803   2.993 -3.6441  2.3152  0.7817
  914SOL    HW2 3655   2.643   1.758   3.085  0.9085  0.2586 -3.5670
  914SOL     MW 3656   2.717   1.744   3.054 -0.8546  0.4428 -0.3575
  915SOL     OW 3657   1.719   0.225   0.230 -0.2096 -0.5699 -0.1754
  915SOL    HW1 3658   1.792   0.193   0.277 -2.1255  0.7600 -0.9125
  915SOL    HW2 3659   1.642   0.168   0.238  0.4659  1.3399 -0.7227
  915SOL     MW 3660   1.718   0.213   0.237 -0.3733 -0.1424 -0.3448
  916SOL     OW 3661   1.818   2.063   1.925  0.3803  0.0829  0.4001
  916SOL    HW1 3662   1.825   2.158   1.947 -0.8528  1.3314 -0.5812
  916SOL    HW2 3663   1.797   2.055   1.831  1.4326 -0.5517 -0.0347
  916SOL     MW 3664   1.816   2.074   1.915  0.3565  0.1639  0.2133
  917SOL     OW 3665   2.495   2.223   2.562  0.8906 -0.6695 -0.2854
  917SOL    HW1 3666   2.466   2.277   2.634 -0.3575 -2.8953  0.3335
  917SOL    HW2 3667   2.567   2.271   2.524  0.5382 -0.8539  2.7853
  917SOL     MW 3668   2.501   2.236   2.566  0.6794 -0.9875  0.2014
  918SOL     OW 3669   1.968   1.615   2.708 -0.1011 -0.7011 -0.0296
  918SOL    HW1 3670   1.901   1.621   2.641  1.7466 -0.6354 -0.8234
  918SOL    HW2 3671   2.038   1.670   2.685 -1.1052 -1.8074 -1.2653
  918SOL     MW 3672   1.968   1.623   2.696  0.0102 -0.8384 -0.2974
  919SOL     OW 3673   0.037   2.314   2.262 -0.6224 -0.0717 -0.2671
  919SOL    HW1 3674  -0.046   2.271   2.231 -1.0549  0.8068  0.2853
  919SOL    HW2 3675   0.088   2.326   2.176 -1.7618  3.0596  0.2612
  919SOL     MW 3676   0.033   2.310   2.246 -0.8298  0.4573 -0.1246
  920SOL     OW 3677   2.769   2.806   3.094 -0.2682  0.4262 -0.1718
  920SOL    HW1 3678   2.686   2.855   3.084 -1.6964 -1.0906  1.7881
  920SOL    HW2 3679   2.752   2.740   3.022  0.5369 -0.3625  1.1187
  920SOL     MW 3680   2.756   2.804   3.083 -0.3504  0.1220  0.2571
  921SOL     OW 3681   2.424   2.571   2.612  0.5330  0.2015 -0.4844
  921SOL    HW1 3682   2.511   2.601   2.580  0.1792 -3.2707 -0.1545
  921SOL    HW2 3683   2.436   2.521   2.687  2.0512 -0.1126 -2.3098
  921SOL     MW 3684   2.437   2.569   2.617  0.6866 -0.2981 -0.6817
  922SOL     OW 3685   2.037   2.826   0.305 -0.2969  0.5237 -0.3215
  922SOL    HW1 3686   1.982   2.855   0.230 -1.1103 -2.2796 -0.9087
  922SOL    HW2 3687   2.020   2.726   0.308 -2.0038  0.3289  1.5373
  922SOL     MW 3688   2.028   2.817   0.296 -0.6294  0.1281 -0.1537
  923SOL     OW 3689   2.183   2.828   1.668 -0.0287  0.0455  0.1072
  923SOL    HW1 3690   2.237   2.765   1.618  0.0188  1.1469 -0.3686
  923SOL    HW2 3691   2.141   2.878   1.602  0.2009  0.6678  0.3356
  923SOL     MW 3692   2.185   2.826   1.653  0.0078  0.2730  0.0745
  924SOL     OW 3693   1.221   2.601   2.499 -0.0144 -0.2652 -0.0652
  924SOL    HW1 3694   1.290   2.666   2.485 -1.0197 -2.7721  0.5661
  924SOL    HW2 3695   1.270   2.522   2.530  0.8305  1.0472 -1.1629
  924SOL     MW 3696   1.237   2.599   2.501 -0.0356 -0.4228 -0.1267
  925SOL     OW 3697   2.968   0.239   2.606  0.0114 -0.0487  0.1001
  925SOL    HW1 3698   2.930   0.249   2.511  0.3557 -4.6484  0.0104
  925SOL    HW2 3699   2.924   0.305   2.652  2.5405 -3.1560 -2.4676
  925SOL     MW 3700   2.957   0.249   2.600  0.3905 -1.0656 -0.2505
  926SOL     OW 3701   2.761   2.406   2.093 -0.1722 -0.5461  0.4787
  926SOL    HW1 3702   2.816   2.464   2.150 -0.6640  0.9542 -3.2650
  926SOL    HW2 3703   2.799   2.409   2.003  0.9662  0.2557  0.0202
  926SOL     MW 3704   2.773   2.414   2.089 -0.0869 -0.2423 -0.0757
  927SOL     OW 3705   2.335   0.142   0.314  0.8985  0.1073  0.0685
  927SOL    HW1 3706   2.422   0.148   0.334 -0.9652 -0.8503 -2.7602
  927SOL    HW2 3707   2.339   0.118   0.223  2.4871 -0.8902  1.5836
  927SOL     MW 3708   2.347   0.140   0.305  0.8622 -0.1506 -0.1048
  928SOL     OW 3709   2.103   2.443   1.921  0.3518  0.5376  0.1543
  928SOL    HW1 3710   2.133   2.361   1.874 -0.6028 -2.6435  1.7672
  928SOL    HW2 3711   2.189   2.470   1.960 -1.1211 -1.5473  4.0098
  928SOL     MW 3712   2.119   2.436   1.920  0.0315 -0.1572  0.8758
  929SOL     OW 3713   2.691   2.370   2.445  0.3804 -0.0013  0.0328
  929SOL    HW1 3714   2.741   2.397   2.372 -2.1191  0.0030  1.0419
  929SOL    HW2 3715   2.758   2.340   2.502  1.5411 -2.4165 -1.3575
  929SOL     MW 3716   2.706   2.369   2.443  0.2038 -0.3194 -0.0175
  930SOL     OW 3717   2.029   2.821   2.718  0.0666 -0.2805  0.0498
  930SOL    HW1 3718   2.047   2.749   2.778 -1.3284  0.0200 -0.5276
  930SOL    HW2 3719   2.106   2.890   2.724  1.2713  0.1990 -0.3234
  930SOL     MW 3720   2.042   2.821   2.727  0.0415 -0.1776 -0.0756
  931SOL     OW 3721   3.018   2.766   2.284 -0.1500  0.2813  0.7512
  931SOL    HW1 3722   3.060   2.813   2.352  0.3539 -1.7037 -0.6031
  931SOL    HW2 3723   3.078   2.762   2.208  2.4462 -1.3454 -1.0860
  931SOL     MW 3724   3.031   2.772   2.283  0.2590 -0.1952  0.3301
  932SOL     OW 3725   2.822   2.012   2.563 -0.0415 -0.0977  0.2057
  932SOL    HW1 3726   2.918   2.006   2.574  0.4524  0.4498 -0.8020
  932SOL    HW2 3727   2.816   2.010   2.465  1.8780  0.0403 -0.2145
  932SOL     MW 3728   2.834   2.011   2.551  0.2769 -0.0072  0.0173
  933SOL     OW 3729   2.031   2.873   2.277  0.1611  0.5288  0.4314
  933SOL    HW1 3730   2.087   2.926   2.330  1.0404 -0.3020  0.4352
  933SOL    HW2 3731   1.952   2.928   2.258 -2.2914 -3.2747 -0.7478
  933SOL     MW 3732   2.028   2.887   2.281 -0.0465 -0.0826  0.2763
  934SOL     OW 3733   1.992   2.680   2.468 -0.3220 -0.2144  0.2572
  934SOL    HW1 3734   2.012   2.723   2.553  0.4037 -0.3113  0.5852
  934SOL    HW2 3735   2.011   2.743   2.396 -3.8044  0.9254 -1.6249
  934SOL     MW 3736   1.997   2.694   2.469 -0.6857 -0.0768  0.0522
  935SOL     OW 3737   2.648   1.598   1.810 -0.1628 -0.3420 -0.3940
  935SOL    HW1 3738   2.738   1.584   1.785  3.3028 -2.6557 -0.1041
  935SOL    HW2 3739   2.594   1.568   1.732  0.6047  1.1609 -1.2192
  935SOL     MW 3740   2.653   1.592   1.796  0.3957 -0.4490 -0.4646
  936SOL     OW 3741   2.983   2.259   3.075 -0.1734 -0.3805 -0.3030
  936SOL    HW1 3742   3.060   2.298   3.119  0.8951 -0.7373  0.7876
  936SOL    HW2 3743   2.907   2.318   3.098 -2.6979 -1.4559  1.1380
  936SOL     MW 3744   2.983   2.272   3.084 -0.3655 -0.5694  0.0311
  937SOL     OW 3745   1.951   2.106   2.678  0.3693  0.1607 -0.0724
  937SOL    HW1 3746   2.034   2.082   2.719 -3.7895 -0.5804 -1.3845
  937SOL    HW2 3747   1.949   2.077   2.582  1.0873  0.4645 -0.3823
  937SOL     MW 3748   1.962   2.099   2.671 -0.0846  0.1030 -0.2864
  938SOL     OW 3749   2.270   1.823   1.909 -0.1587 -0.1177 -0.0628
  938SOL    HW1 3750   2.246   1.844   1.815  0.9249  0.3065 -2.7529
  938SOL    HW2 3751   2.272   1.906   1.958  1.4891  0.7190  2.7304
  938SOL     MW 3752   2.267   1.837   1.903  0.2017  0.0487 -0.0492
  939SOL     OW 3753   2.795   1.978   2.259 -0.4447  0.1204  0.4646
  939SOL    HW1 3754   2.829   1.915   2.192 -2.0748  0.7368  1.6217
  939SOL    HW2 3755   2.698   1.970   2.264 -2.4464  0.2305 -1.4262
  939SOL     MW 3756   2.787   1.969   2.251 -0.9239  0.2163  0.3678
  940SOL     OW 3757   2.318   0.186   2.627  0.3039  0.1087 -0.3175
  940SOL    HW1 3758   2.313   0.094   2.645  0.3455  2.6875  0.1873
  940SOL    HW2 3759   2.362   0.224   2.705  1.6824 -0.9300  4.4286
  940SOL     MW 3760   2.323   0.179   2.640  0.4912  0.3119  0.3753
  941SOL     OW 3761   0.174   2.331   2.021 -0.2446  1.2689  0.7751
  941SOL    HW1 3762   0.262   2.292   2.015  2.3518 -0.0730  1.0315
  941SOL    HW2 3763   0.133   2.288   1.937 -1.8916 -3.7222  0.2351
  941SOL     MW 3764   0.180   2.320   2.009 -0.1194  0.4333  0.7377
  942SOL     OW 3765   2.941   2.186   2.161 -0.5059 -0.1987  0.5347
  942SOL    HW1 3766   2.874   2.251   2.129  1.4976  3.0013  0.9748
  942SOL    HW2 3767   2.886   2.124   2.208  0.1130 -2.0378  1.1502
  942SOL     MW 3768   2.925   2.186   2.163 -0.1599 -0.0192  0.6740
  943SOL     OW 3769   0.292   2.092   2.252  0.1456  0.7684 -0.5404
  943SOL    HW1 3770   0.247   2.125   2.328  0.4362  0.4545 -0.4411
  943SOL    HW2 3771   0.379   2.063   2.284 -1.4867  2.6752 -1.2515
  943SOL     MW 3772   0.297   2.092   2.266 -0.0314  0.9785 -0.6211
  944SOL     OW 3773   2.097   2.692   2.082 -0.7376  0.1076  0.5209
  944SOL    HW1 3774   2.173   2.647   2.121 -0.1231 -0.3708 -3.3767
  944SOL    HW2 3775   2.062   2.753   2.148  1.3664 -0.9869 -0.7992
  944SOL     MW 3776   2.103   2.694   2.096 -0.3789 -0.0999 -0.1676
  945SOL     OW 3777   2.686   2.681   2.879 -0.5129 -0.2942 -0.0695
  945SOL    HW1 3778   2.692   2.584   2.867  0.2005  2.1575  0.8322
  945SOL    HW2 3779   2.725   2.721   2.801 -2.5027 -0.5458 -1.0549
  945SOL     MW 3780   2.692   2.674   2.867 -0.6813 -0.0040 -0.0806
  946SOL     OW 3781   2.459   2.767   2.316 -0.5162  0.2236 -0.1618
  946SOL    HW1 3782   2.510   2.784   2.243 -1.9508  0.6370  1.5013
  946SOL    HW2 3783   2.392   2.706   2.290  2.3436  1.6476  0.0734
  946SOL     MW 3784   2.457   2.761   2.303 -0.3281  0.4660  0.0887
  947SOL     OW 3785   1.972   0.118   0.295 -0.2260 -0.0361  0.5171
  947SOL    HW1 3786   1.940   0.030   0.272 -1.5966 -3.0343 -0.4236
  947SOL    HW2 3787   2.023   0.114   0.373 -1.4450  1.3607  0.1944
  947SOL     MW 3788   1.974   0.106   0.302 -0.5677 -0.2474  0.3504
  948SOL     OW 3789   1.770   2.968   2.682  0.6265  0.3397 -0.0600
  948SOL    HW1 3790   1.850   2.913   2.691  0.0177 -1.0419 -1.5221
  948SOL    HW2 3791   1.762   2.990   2.590  0.2931  1.3200  2.6241
  948SOL     MW 3792   1.780   2.964   2.671  0.5022  0.2867  0.1013
  949SOL     OW 3793   2.514   1.962   2.279 -0.0137 -0.8676  0.5425
  949SOL    HW1 3794   2.493   1.868   2.300 -0.0845  0.3884  0.9106
  949SOL    HW2 3795   2.451   2.016   2.320  1.7549 -0.2935 -2.5520
  949SOL     MW 3796   2.503   1.957   2.287  0.2103 -0.6261  0.1828
  950SOL     OW 3797   2.267   2.512   2.968 -0.2919 -0.3201 -0.5471
  950SOL    HW1 3798   2.317   2.459   2.903  2.1793 -3.2737  0.5891
  950SOL    HW2 3799   2.185   2.530   2.919 -0.7542 -0.4646  0.2670
  950SOL     MW 3800   2.262   2.507   2.953 -0.0269 -0.7289 -0.2898
  951SOL     OW 3801   3.012   2.128   2.816  0.4124 -0.1237 -0.2002
  951SOL    HW1 3802   3.016   2.132   2.913 -3.0703 -0.0709  1.7097
  951SOL    HW2 3803   3.101   2.111   2.780  1.5311 -1.5384 -2.0688
  951SOL     MW 3804   3.024   2.126   2.824  0.1005 -0.3034 -0.1947
  952SOL     OW 3805   3.095   1.668   2.165 -0.5416  0.2051  0.0443
  952SOL    HW1 3806   3.014   1.703   2.126  0.0648 -0.8391 -1.1185
  952SOL    HW2 3807   3.149   1.750   2.166 -0.3212  0.2955 -0.6233
  952SOL     MW 3808   3.091   1.684   2.160 -0.4325  0.0792 -0.1972
  953SOL     OW 3809   1.924   1.795   2.895 -0.1697  0.1892  0.5044
  953SOL    HW1 3810   1.851   1.765   2.950 -1.3837  0.9821  1.6406
  953SOL    HW2 3811   1.948   1.717   2.843  1.7186  0.0971  1.6571
  953SOL     MW 3812   1.918   1.781   2.896 -0.0807  0.2817  0.8064
  954SOL     OW 3813   2.451   2.105   2.882 -0.5930 -0.2313 -0.0270
  954SOL    HW1 3814   2.357   2.083   2.862 -4.0840  1.6159 -0.8451
  954SOL    HW2 3815   2.515   2.061   2.818 -1.1531  0.7774  0.3743
  954SOL     MW 3816   2.447   2.096   2.871 -1.1275  0.1455 -0.0820
  955SOL     OW 3817   1.584   1.574   2.631 -0.5451  0.0710 -0.5353
  955SOL    HW1 3818   1.510   1.570   2.571  1.6155  1.6372  1.3825
  955SOL    HW2 3819   1.640   1.641   2.588  2.0063  0.2914 -1.3936
  955SOL     MW 3820   1.582   1.582   2.617  0.0766  0.3067 -0.3955
  956SOL     OW 3821   2.684   2.397   2.838  0.1389  0.1820 -0.1329
  956SOL    HW1 3822   2.697   2.373   2.931  0.4884 -1.5767  0.6183
  956SOL    HW2 3823   2.756   2.365   2.781  0.7779 -1.5662 -2.7121
  956SOL     MW 3824   2.695   2.389   2.843  0.2693 -0.2807 -0.3741
  957SOL     OW 3825   2.341   2.854   0.401  0.6600 -0.1259 -0.2506
  957SOL    HW1 3826   2.273   2.850   0.329  1.2645  0.2991 -2.0726
  957SOL    HW2 3827   2.304   2.819   0.488 -1.8651  1.4334  1.6561
  957SOL     MW 3828   2.327   2.849   0.403  0.4066  0.1359 -0.2394
  958SOL     OW 3829   2.021   2.580   2.853 -0.2701  0.3998 -0.4103
  958SOL    HW1 3830   2.009   2.486   2.813 -1.9607 -1.6695  1.4834
  958SOL    HW2 3831   1.945   2.604   2.909  2.2724 -0.0626  1.9737
  958SOL     MW 3832   2.009   2.571   2.855 -0.1577  0.0658  0.1541
  959SOL     OW 3833   2.473   2.604   0.345  0.3049  0.0378 -0.8453
  959SOL    HW1 3834   2.529   2.610   0.267  2.4620 -0.0552  1.3543
  959SOL    HW2 3835   2.429   2.687   0.345 -0.0285 -0.8634  3.4197
  959SOL     MW 3836   2.475   2.616   0.335  0.5455 -0.0933  0.0077
  960SOL     OW 3837   1.956   2.286   2.208 -0.3283 -0.3072 -0.1191
  960SOL    HW1 3838   1.920   2.199   2.225  0.6856 -2.7693 -0.0765
  960SOL    HW2 3839   1.910   2.334   2.275  2.2765 -0.4177  0.4922
  960SOL     MW 3840   1.945   2.281   2.219  0.1491 -0.6466 -0.0328
  961SOL     OW 3841   2.226   2.337   2.250 -0.4071  0.5387  0.2911
  961SOL    HW1 3842   2.130   2.327   2.239 -0.9076  1.1250 -0.0664
  961SOL    HW2 3843   2.233   2.382   2.330 -1.6257 -2.5935 -2.3693
  961SOL     MW 3844   2.214   2.342   2.259 -0.6339  0.2028 -0.1071
  962SOL     OW 3845   2.181   2.026   2.817 -0.8331  0.1909 -0.3929
  962SOL    HW1 3846   2.118   2.002   2.883 -0.5102 -1.3432  0.3439
  962SOL    HW2 3847   2.199   1.945   2.759 -1.4863 -2.3608 -0.3246
  962SOL     MW 3848   2.175   2.012   2.818 -0.8767 -0.3482 -0.2867
  963SOL     OW 3849   1.834   2.593   2.065  0.1585 -0.0469  0.4416
  963SOL    HW1 3850   1.932   2.614   2.070 -0.1055  0.3135 -0.7230
  963SOL    HW2 3851   1.829   2.509   2.020 -0.9116  0.6509  0.8883
  963SOL     MW 3852   1.846   2.585   2.060 -0.0175  0.0927  0.3469
  964SOL     OW 3853   1.741   1.931   2.728  0.2469  0.2306 -0.1772
  964SOL    HW1 3854   1.806   1.998   2.697  2.8853  0.1442  1.1724
  964SOL    HW2 3855   1.799   1.874   2.789  2.7074  0.3556 -2.1763
  964SOL     MW 3856   1.757   1.933   2.732  0.9196  0.2357 -0.2629
  965SOL     OW 3857   2.210   2.761   0.608  0.2765  0.1302 -0.4409
  965SOL    HW1 3858   2.216   2.668   0.583  1.4230  3.0212  1.2071
  965SOL    HW2 3859   2.259   2.768   0.690  2.8977 -2.1788 -1.5840
  965SOL     MW 3860   2.217   2.750   0.616  0.7736  0.2070 -0.3743
  966SOL     OW 3861   2.659   2.662   2.500  0.0811  0.4898 -0.4088
  966SOL    HW1 3862   2.596   2.714   2.453  0.8186  0.9695  2.3364
  966SOL    HW2 3863   2.653   2.573   2.465 -1.0391 -0.5457  3.0273
  966SOL     MW 3864   2.650   2.657   2.490  0.0306  0.4165  0.4067
  967SOL     OW 3865   2.799   3.012   2.908 -0.4553  0.1418 -0.1883
  967SOL    HW1 3866   2.796   2.946   2.978 -0.7455  0.3700 -0.9246
  967SOL    HW2 3867   2.707   3.038   2.891 -2.3973 -0.2323  1.8493
  967SOL     MW 3868   2.786   3.006   2.915 -0.7498  0.1226 -0.0166
  968SOL     OW 3869   3.047   2.652   2.909  0.2569  0.2100  0.1288
  968SOL    HW1 3870   2.951   2.670   2.870 -3.5592 -3.0805  0.2651
  968SOL    HW2 3871   3.076   2.578   2.858 -0.0440 -0.7421  0.8071
  968SOL     MW 3872   3.038   2.645   2.897 -0.2863 -0.3497  0.2363
  969SOL     OW 3873   1.535   2.172   1.671  0.8204  0.1288 -0.0569
  969SOL    HW1 3874   1.598   2.098   1.667  0.3387  0.7541  1.1582
  969SOL    HW2 3875   1.522   2.158   1.766  1.7135  0.1017  1.3580
  969SOL     MW 3876   1.542   2.160   1.683  0.8747  0.2077  0.2901
  970SOL     OW 3877   1.656   1.723   1.793  0.3356  0.7463  0.7092
  970SOL    HW1 3878   1.730   1.702   1.848 -4.3704 -0.7707  2.3269
  970SOL    HW2 3879   1.582   1.732   1.850 -1.3533 -1.1087 -0.3033
  970SOL     MW 3880   1.656   1.721   1.808 -0.5081  0.3014  0.7890
  971SOL     OW 3881   1.745   3.060   2.397 -0.1001  0.3682 -0.0342
  971SOL    HW1 3882   1.767   3.030   2.305  0.7454 -0.8979 -1.6660
  971SOL    HW2 3883   1.798   3.136   2.410  0.7780 -1.1813  0.9853
  971SOL     MW 3884   1.755   3.066   2.387  0.1273 -0.0033 -0.1150
  972SOL     OW 3885   0.255   2.877   2.458  0.1306  0.1937 -0.1892
  972SOL    HW1 3886   0.310   2.801   2.481 -1.0099  0.0615  1.6967
  972SOL    HW2 3887   0.306   2.960   2.488  3.2532  0.7974  1.8202
  972SOL     MW 3888   0.269   2.878   2.465  0.3921  0.2559  0.3247
  973SOL     OW 3889   2.519   0.026   2.066  0.8541 -0.1261  0.6596
  973SOL    HW1 3890   2.526  -0.067   2.040 -0.0883 -2.2717 -3.1151
  973SOL    HW2 3891   2.552   0.078   1.990 -2.1707  3.2459 -0.2076
  973SOL     MW 3892   2.524   0.020   2.053  0.3306  0.0357  0.0472
  974SOL     OW 3893   2.059   0.222   2.687 -0.2433  0.0232 -0.1017
  974SOL    HW1 3894   2.153   0.224   2.675 -0.3226 -0.2294  1.0458
  974SOL    HW2 3895   2.045   0.146   2.745  0.7471  0.6476 -0.8525
  974SOL     MW 3896   2.069   0.212   2.693 -0.1231  0.0723 -0.0493
  975SOL     OW 3897   2.196   2.455   2.483 -0.0944 -0.3662 -0.1327
  975SOL    HW1 3898   2.264   2.476   2.544 -1.1096 -2.0022  1.3666
  975SOL    HW2 3899   2.154   2.544   2.472  3.9866  2.5393  0.1178
  975SOL     MW 3900   2.200   2.470   2.490  0.3101 -0.1987  0.0981
  976SOL     OW 3901   0.245   0.363   1.721 -0.5689  0.5520  0.2014
  976SOL    HW1 3902   0.312   0.306   1.757  1.2293  0.9397 -0.2091
  976SOL    HW2 3903   0.178   0.299   1.684  0.9490  2.7995  0.3459
  976SOL     MW 3904   0.245   0.347   1.721 -0.1314  0.8997  0.1663
  977SOL     OW 3905   1.736   2.615   2.488  0.0935 -0.2651  0.0481
  977SOL    HW1 3906   1.741   2.519   2.497 -0.7701 -0.0324  2.0462
  977SOL    HW2 3907   1.828   2.643   2.488 -0.5479  2.3225  0.9579
  977SOL     MW 3908   1.749   2.606   2.489 -0.1051  0.1070  0.4318
   3.10000   3.10000   3.10000
