1000 SPC/Fw water molecules t= 100.00000 step= 100000
 2931
    1SOL     OW    1   0.843   1.155   0.139 -0.2562  0.8753  0.0480
    1SOL    HW1    2   0.853   1.124   0.237  3.4018  0.5816  0.4488
    1SOL    HW2    3   0.745   1.170   0.121 -0.3024  0.8725 -0.2691
    2SOL     OW    4   2.118   0.581   1.413  0.1359 -0.1006 -0.1837
    2SOL    HW1    5   2.115   0.536   1.507  0.9022 -2.4767  0.1008
    2SOL    HW2    6   2.113   0.684   1.424  0.0879 -3.4290 -0.7105
    3SOL     OW    7   0.168   0.562   2.968  0.4949  0.2649  0.0718
    3SOL    HW1    8   0.100   0.519   2.909  2.4746  2.4715 -0.3399
    3SOL    HW2    9   0.135   0.580   3.062  1.1153  2.2766 -1.7500
    4SOL     OW   10   0.894   1.508   0.367  0.4714  0.2334  0.5385
    4SOL    HW1   11   0.977   1.446   0.361  2.0978 -2.6417 -0.4233
    4SOL    HW2   12   0.848   1.504   0.455  3.1945  0.4657 -0.2422
    5SOL     OW   13   1.629   1.779   0.904 -0.3835 -0.1687 -0.2079
    5SOL    HW1   14   1.602   1.786   1.004 -2.1685 -1.1589  1.7297
    5SOL    HW2   15   1.733   1.800   0.890  1.2946  2.1532  0.5111
    6SOL     OW   16   1.217   0.447   1.025 -0.2459  0.1958 -0.5032
    6SOL    HW1   17   1.184   0.525   0.968 -1.7144  0.4053  0.1149
    6SOL    HW2   18   1.302   0.466   1.079  0.6905  1.3539 -0.5217
    7SOL     OW   19   1.880   0.547   0.954 -0.0830 -0.6732  0.5675
    7SOL    HW1   20   1.834   0.475   0.901 -2.6987  0.7070  1.5865
    7SOL    HW2   21   1.863   0.540   1.054 -1.1368  0.0692  0.2537
    8SOL     OW   22   1.223   1.842   0.212 -0.1314 -0.3402 -0.1640
    8SOL    HW1   23   1.225   1.937   0.182  0.6060  1.0981  0.4031
    8SOL    HW2   24   1.144   1.799   0.163 -1.7623  1.0791 -0.1134
    9SOL     OW   25   1.229   0.979   1.339  0.1225 -0.4914  0.0133
    9SOL    HW1   26   1.214   0.919   1.260 -1.3571  1.9921  1.0739
    9SOL    HW2   27   1.326   1.010   1.349  0.1061  1.9203 -0.1836
   10SOL     OW   28   0.755   0.595   2.992 -1.0428 -0.0264 -0.4918
   10SOL    HW1   29   0.772   0.683   2.940  2.2360 -1.0915 -2.5970
   10SOL    HW2   30   0.822   0.530   2.953 -0.7879  0.2910 -1.9048
   11SOL     OW   31   0.663   0.261   1.723 -0.0890 -0.2489 -0.0793
   11SOL    HW1   32   0.705   0.211   1.802  0.8426 -1.0283  0.2607
   11SOL    HW2   33   0.736   0.265   1.653 -0.7280 -0.3941 -2.0086
   12SOL     OW   34   0.342   0.258   0.657 -0.2958 -0.1879  0.0601
   12SOL    HW1   35   0.308   0.356   0.644  0.0068 -0.3553  1.5905
   12SOL    HW2   36   0.365   0.227   0.560 -1.3591 -0.0642 -0.1459
   13SOL     OW   37   1.380   1.915   0.799 -0.4755 -0.2483  0.2182
   13SOL    HW1   38   1.409   1.834   0.857  2.7543 -2.4433 -0.9419
   13SOL    HW2   39   1.457   1.943   0.738  0.3291  0.0596 -1.6840
   14SOL     OW   40   0.827   1.465   2.352  0.1343 -0.4742  0.0443
   14SOL    HW1   41   0.818   1.456   2.459  0.2124 -1.4480  2.3819
   14SOL    HW2   42   0.900   1.401   2.329 -3.1924 -0.5384  0.6566
   15SOL     OW   43   0.771   0.694   0.344  0.7072 -0.2453 -0.0129
   15SOL    HW1   44   0.740   0.642   0.423  0.3729  1.8152 -2.2157
   15SOL    HW2   45   0.717   0.670   0.261 -1.9618 -1.0182  1.6577
   16SOL     OW   46   0.749   2.052   0.658 -0.1806 -0.1024  0.1154
   16SOL    HW1   47   0.727   1.987   0.738 -0.9503  1.8831  1.4144
   16SOL    HW2   48   0.831   2.020   0.607 -1.8491 -3.1678  0.2564
   17SOL     OW   49   1.826   0.692   2.160 -0.0948 -0.4086  0.5068
   17SOL    HW1   50   1.890   0.626   2.115 -2.3460 -0.9772  1.4840
   17SOL    HW2   51   1.744   0.710   2.100  1.2376 -0.3793 -0.6454
   18SOL     OW   52   0.275   1.803   0.191  0.4192  0.1427  0.7688
   18SOL    HW1   53   0.279   1.703   0.203 -1.0213 -0.5144 -0.7546
   18SOL    HW2   54   0.316   1.848   0.271 -3.3700 -2.2670 -2.9958
   19SOL     OW   55   2.735   1.246   1.539  0.0541  0.7197 -0.2813
   19SOL    HW1   56   2.739   1.291   1.446  0.3925  0.0418 -2.9157
   19SOL    HW2   57   2.653   1.185   1.541  1.7410 -0.8136  0.6929
   20SOL     OW   58   1.186   0.798   1.589 -0.1117 -0.2619 -0.0711
   20SOL    HW1   59   1.107   0.823   1.648 -1.6021 -0.8764  0.9371
   20SOL    HW2   60   1.263   0.866   1.601 -0.1742  0.9727  3.9088
   21SOL     OW   61   0.393   1.494   1.477  0.4868  0.4604 -0.1440
   21SOL    HW1   62   0.328   1.516   1.552 -3.3332  0.1668  1.0978
   21SOL    HW2   63   0.405   1.391   1.452  0.2122 -2.3927 -0.7727
   22SOL     OW   64   1.341   2.729   0.864  0.3694 -0.0101  0.6649
   22SOL    HW1   65   1.322   2.685   0.771  0.7346 -0.6152 -0.2682
   22SOL    HW2   66   1.296   2.667   0.929 -0.4016  0.5615 -1.8405
   23SOL     OW   67   0.450   0.037   1.922 -0.0491 -0.4232 -0.0086
   23SOL    HW1   68   0.411   0.038   1.828 -1.2754 -0.9506  0.2437
   23SOL    HW2   69   0.549   0.070   1.925  2.6501  0.3039  3.2523
   24SOL     OW   70   2.054   1.758   1.070  0.0947 -0.1545 -0.0418
   24SOL    HW1   71   1.993   1.717   1.137 -0.3756  0.3658 -2.6385
   24SOL    HW2   72   2.109   1.682   1.029  0.8537 -3.1588 -0.9431
   25SOL     OW   73   0.080   3.027   1.776 -0.2335  0.2288  0.3480
   25SOL    HW1   74   0.178   3.040   1.752 -0.5476 -0.3261  2.8488
   25SOL    HW2   75   0.064   3.029   1.877 -1.0132 -0.9069 -0.4610
   26SOL     OW   76   2.783   1.396   1.312 -0.2450  0.5600 -0.4944
   26SOL    HW1   77   2.884   1.395   1.307 -0.3062 -0.2468 -0.8021
   26SOL    HW2   78   2.745   1.479   1.262 -1.6155 -0.6439 -0.0460
   27SOL     OW   79   2.053   2.001   1.187  0.3179  0.3342  0.2177
   27SOL    HW1   80   1.988   2.057   1.130 -1.0810  1.7080 -1.3557
   27SOL    HW2   81   2.059   1.905   1.150  1.7658  0.1614 -0.3591
   28SOL     OW   82   0.049   2.860   1.370 -0.0620 -0.0011 -0.1869
   28SOL    HW1   83  -0.009   2.896   1.444  0.4623  0.4619 -1.4195
   28SOL    HW2   84   0.132   2.917   1.355  0.8261  1.4154 -2.1103
   29SOL     OW   85   3.043   2.700   0.883  0.5934  0.3688  0.1996
   29SOL    HW1   86   3.029   2.694   0.982  0.6255  2.6528 -1.5910
   29SOL    HW2   87   3.039   2.799   0.856 -0.6237  0.8976  1.0694
   30SOL     OW   88   0.996   0.957   1.727 -0.2554 -0.7642  0.2197
   30SOL    HW1   89   0.936   1.018   1.670 -3.3731  0.7001 -0.0921
   30SOL    HW2   90   0.935   0.880   1.762  0.6092 -0.0336 -1.3404
   31SOL     OW   91   0.091   0.467   0.931 -0.3034  0.2436  0.1670
   31SOL    HW1   92   0.000   0.515   0.921 -0.3417 -1.6221  0.6677
   31SOL    HW2   93   0.129   0.507   1.015 -1.0111  0.5486  0.9058
   32SOL     OW   94   2.287   0.960   1.590  0.4185  0.0151  0.3273
   32SOL    HW1   95   2.307   0.884   1.657 -0.9693  1.6852 -1.6320
   32SOL    HW2   96   2.369   1.016   1.571 -0.1839 -1.2254 -0.2560
   33SOL     OW   97   1.937   0.259   1.284  0.4752 -0.7142 -0.5016
   33SOL    HW1   98   1.876   0.185   1.255  1.2745 -0.3844  1.2577
   33SOL    HW2   99   1.910   0.355   1.253 -1.4932  0.0017  0.4518
   34SOL     OW  100   1.562   2.540   1.674 -0.3968 -0.9625 -0.4410
   34SOL    HW1  101   1.539   2.493   1.761  0.3815  0.3965  2.2595
   34SOL    HW2  102   1.524   2.493   1.596  1.2393 -0.3604  1.0779
   35SOL     OW  103   0.468   0.624   2.122 -0.4415  0.2216 -0.2296
   35SOL    HW1  104   0.480   0.550   2.053 -0.0601 -2.3147 -3.4361
   35SOL    HW2  105   0.505   0.713   2.088  1.6214 -1.1708  2.6497
   36SOL     OW  106   2.346   1.681   1.301 -1.2866 -0.5575 -0.5173
   36SOL    HW1  107   2.373   1.778   1.284  0.3936 -2.5967 -1.1238
   36SOL    HW2  108   2.314   1.637   1.217 -1.4785  0.3677 -1.3420
   37SOL     OW  109   1.636   1.985   0.494  0.1629 -0.6134  0.2828
   37SOL    HW1  110   1.567   1.911   0.515 -1.8638  1.3011  0.1698
   37SOL    HW2  111   1.729   1.954   0.490 -0.7024  1.0082 -1.2838
   38SOL     OW  112   3.001   2.000   0.999  0.4580  0.1214 -0.3270
   38SOL    HW1  113   2.909   1.954   1.011 -2.4265  0.0296  1.5420
   38SOL    HW2  114   2.988   2.100   0.979 -1.5602 -1.2421  1.4851
   39SOL     OW  115   0.123   2.194   1.194 -0.0315  0.0725  0.0334
   39SOL    HW1  116   0.136   2.096   1.221  0.2997 -1.8291  2.7941
   39SOL    HW2  117   0.217   2.232   1.173  1.3938 -0.1563  0.6552
   40SOL     OW  118   2.075   1.707   1.877  0.2763  0.0725  0.2201
   40SOL    HW1  119   2.114   1.793   1.838 -0.3441  2.5868  0.5251
   40SOL    HW2  120   1.973   1.720   1.884 -1.0517 -2.3145 -0.2981
   41SOL     OW  121   0.727   0.711   2.307  0.1899 -0.3387 -0.5317
   41SOL    HW1  122   0.640   0.672   2.331  0.4502  2.7180  2.0742
   41SOL    HW2  123   0.730   0.808   2.340 -0.9660  1.8263 -0.2877
   42SOL     OW  124   2.152   0.548   0.980 -0.0077 -0.0469  0.3768
   42SOL    HW1  125   2.193   0.457   0.987 -0.2503  1.1577  1.6936
   42SOL    HW2  126   2.054   0.542   0.986  0.6809 -2.8877  1.0834
   43SOL     OW  127   1.229   0.538   1.674  0.0063  0.0588  0.2705
   43SOL    HW1  128   1.193   0.623   1.629 -0.0508  1.5457  1.4307
   43SOL    HW2  129   1.182   0.533   1.765 -2.5542  1.7876 -0.9143
   44SOL     OW  130   0.221   0.265   1.771  0.1715 -0.4709  0.1399
   44SOL    HW1  131   0.148   0.326   1.741  0.1621 -1.3116  0.7298
   44SOL    HW2  132   0.226   0.180   1.722  0.2313  3.1112  2.3602
   45SOL     OW  133   0.584   1.970   2.883  0.4252 -0.2111  0.3248
   45SOL    HW1  134   0.670   2.018   2.869 -0.0178 -1.2779 -1.2579
   45SOL    HW2  135   0.535   1.954   2.794  3.0201 -0.0550 -2.9062
   46SOL     OW  136   3.066   1.919   1.685  0.1704  0.1663  0.3480
   46SOL    HW1  137   3.117   1.844   1.641 -0.8426 -1.6254  0.3327
   46SOL    HW2  138   3.119   1.957   1.761 -0.0933 -0.5491  0.9205
   47SOL     OW  139   0.380   2.253   1.148  0.5380 -0.1383  0.2707
   47SOL    HW1  140   0.449   2.319   1.106 -1.0190  2.5631  1.1736
   47SOL    HW2  141   0.388   2.263   1.249 -1.6748 -3.2339  2.7321
   48SOL     OW  142   0.667   0.869   0.020 -0.1659 -0.3112 -0.1128
   48SOL    HW1  143   0.746   0.934   0.013  1.3519 -0.1790 -0.6513
   48SOL    HW2  144   0.697   0.779  -0.018  2.3183  1.1259  1.4774
   49SOL     OW  145   1.376   0.580   1.222  0.3981 -0.2045 -0.3568
   49SOL    HW1  146   1.454   0.574   1.161 -0.9620 -3.7913  0.2105
   49SOL    HW2  147   1.401   0.540   1.315 -0.9121 -1.3440  0.8264
   50SOL     OW  148   2.350   1.044   0.653 -0.6316 -0.8835  0.6712
   50SOL    HW1  149   2.358   0.991   0.564  0.7362  1.7989  0.7031
   50SOL    HW2  150   2.299   0.996   0.727  1.2318 -1.2266  1.8054
   51SOL     OW  151   0.191   0.586   1.138  0.7636  0.4062  0.3582
   51SOL    HW1  152   0.208   0.678   1.101  1.9133 -2.5503 -0.4782
   51SOL    HW2  153   0.242   0.565   1.221  1.3869 -1.8834 -0.9449
   52SOL     OW  154   0.778   1.532   0.638 -0.0014 -0.0459  0.2415
   52SOL    HW1  155   0.842   1.462   0.669 -1.1426  1.2830 -2.3559
   52SOL    HW2  156   0.769   1.611   0.701  1.5831 -0.8523  0.1445
   53SOL     OW  157   0.412   1.917   0.397  0.1122  0.3516 -0.1867
   53SOL    HW1  158   0.434   1.837   0.455 -0.6182  0.9521 -2.1056
   53SOL    HW2  159   0.492   1.944   0.340 -0.0454  0.3408  1.5429
   54SOL     OW  160   1.522   0.800   1.487  0.3090 -0.4232 -0.3265
   54SOL    HW1  161   1.474   0.834   1.577  0.9343  0.5683  2.6387
   54SOL    HW2  162   1.499   0.704   1.474  3.9695  2.3851  1.5238
   55SOL     OW  163   1.697   1.950   1.788  0.0066 -0.4134 -0.1513
   55SOL    HW1  164   1.612   1.902   1.816  1.3503 -0.1642 -1.7431
   55SOL    HW2  165   1.687   1.956   1.685 -2.6796  0.7877  1.0443
   56SOL     OW  166   0.405   0.917   3.082 -0.2061  0.0051 -0.5500
   56SOL    HW1  167   0.509   0.907   3.095 -1.8674  2.7193 -0.4644
   56SOL    HW2  168   0.363   0.874   3.000  1.6466  5.3489  0.7851
   57SOL     OW  169   1.938   1.055   1.343 -0.1607  0.1796  0.0107
   57SOL    HW1  170   1.966   1.154   1.329  0.3142 -0.9027 -0.2396
   57SOL    HW2  171   1.890   1.008   1.261 -0.3664 -0.0569 -1.7521
   58SOL     OW  172   1.567   1.474   1.545  0.3593  0.0535  0.0425
   58SOL    HW1  173   1.525   1.515   1.464 -1.5028  0.0813  1.0208
   58SOL    HW2  174   1.534   1.523   1.632 -2.3674 -1.6212 -0.2172
   59SOL     OW  175   2.128   1.275   0.141  0.0827  0.0226 -0.2730
   59SOL    HW1  176   2.082   1.362   0.118  4.3706 -1.6530 -1.0524
   59SOL    HW2  177   2.161   1.229   0.056 -3.8756 -1.9456  0.2168
   60SOL     OW  178   0.904   0.674   2.122  0.6771  0.2419 -0.7368
   60SOL    HW1  179   0.956   0.757   2.094 -0.2095 -1.0017  1.5274
   60SOL    HW2  180   0.837   0.701   2.197  1.1580  0.1769  2.2270
   61SOL     OW  181   1.461   1.531   3.071 -0.0331  0.3476  0.3935
   61SOL    HW1  182   1.552   1.489   3.094  2.1394 -1.8231  0.4899
   61SOL    HW2  183   1.395   1.517   3.151 -0.2699  0.0467  0.3639
   62SOL     OW  184   1.243   1.470   0.106  0.5653 -0.3255 -0.0021
   62SOL    HW1  185   1.193   1.381   0.119 -1.9635  0.0129 -1.1184
   62SOL    HW2  186   1.174   1.540   0.084 -0.0733 -0.2283  1.2513
   63SOL     OW  187   0.021   0.210   0.639 -0.4873  0.0964  0.4477
   63SOL    HW1  188   0.061   0.207   0.732  0.0465  1.5725 -0.5649
   63SOL    HW2  189   0.038   0.119   0.592  0.3399 -1.9134  1.4554
   64SOL     OW  190   0.111   1.696   1.549  0.4993 -0.6105  0.0999
   64SOL    HW1  191   0.135   1.728   1.453 -1.0354  1.0034 -1.8674
   64SOL    HW2  192   0.034   1.630   1.559 -0.7189  1.0792 -0.0064
   65SOL     OW  193   0.703   1.328   1.422 -0.3357  0.2349  0.0703
   65SOL    HW1  194   0.726   1.326   1.325 -0.7258 -0.7266  0.5275
   65SOL    HW2  195   0.670   1.419   1.443  0.3028 -1.1106 -1.9467
   66SOL     OW  196   0.028   0.949   2.862  0.1628 -0.2426 -0.1943
   66SOL    HW1  197  -0.020   0.861   2.845  0.2838  1.0894 -2.2980
   66SOL    HW2  198   0.016   0.987   2.952  3.1610 -0.0617 -0.7128
   67SOL     OW  199   2.012   2.259   2.033  1.1326 -0.2101  0.2245
   67SOL    HW1  200   1.935   2.244   1.965 -0.9780 -0.3790 -0.2706
   67SOL    HW2  201   2.103   2.247   1.991  1.8849  2.0000 -2.9056
   68SOL     OW  202   0.363   0.509   0.127 -0.2226 -0.0533  0.0770
   68SOL    HW1  203   0.359   0.482   0.031  1.9877  0.0797 -0.2878
   68SOL    HW2  204   0.449   0.555   0.157  1.1858  0.0890  0.2719
   69SOL     OW  205   0.708   2.572   2.192  0.3728 -0.2121 -0.2539
   69SOL    HW1  206   0.675   2.610   2.280  0.7573  1.3286 -0.3783
   69SOL    HW2  207   0.716   2.640   2.112 -0.7811  0.7856  1.0307
   70SOL     OW  208   0.647   1.116   1.788 -0.3041 -0.3644  0.1760
   70SOL    HW1  209   0.623   1.213   1.814  0.5234 -0.6291 -0.4478
   70SOL    HW2  210   0.566   1.056   1.767  2.3427 -0.5152  1.1490
   71SOL     OW  211   1.707   2.521   2.356 -0.4838  0.9093  0.2931
   71SOL    HW1  212   1.755   2.600   2.399 -1.9169 -0.9152  3.2741
   71SOL    HW2  213   1.767   2.437   2.350 -0.5340 -4.1628 -0.5304
   72SOL     OW  214   0.154   1.358   0.233  0.2080  0.7061  0.3805
   72SOL    HW1  215   0.229   1.421   0.227 -1.1680 -2.9290  0.2999
   72SOL    HW2  216   0.190   1.264   0.218 -2.0693 -0.9805 -0.9449
   73SOL     OW  217   0.285   0.771   0.188  0.2631  0.1859  0.1512
   73SOL    HW1  218   0.334   0.818   0.115  2.3411 -1.3480 -0.4052
   73SOL    HW2  219   0.304   0.674   0.187 -0.2610  2.6054 -1.6615
   74SOL     OW  220   2.987   0.263   2.672  0.5503 -0.2983  0.7636
   74SOL    HW1  221   2.907   0.198   2.652 -2.1519  0.5727  0.1824
   74SOL    HW2  222   3.024   0.260   2.766  1.0598 -0.3936 -3.9209
   75SOL     OW  223   2.698   2.001   1.269  0.5624 -0.3410  0.0651
   75SOL    HW1  224   2.772   1.927   1.254 -0.4264 -3.8791 -3.5190
   75SOL    HW2  225   2.728   2.073   1.331  0.1441 -2.2770 -1.0550
   76SOL     OW  226   0.657   1.212   2.921  0.3885 -0.1216 -0.1572
   76SOL    HW1  227   0.580   1.183   2.859 -0.6538  1.2437 -1.5888
   76SOL    HW2  228   0.731   1.142   2.921 -1.3145  2.4874  0.2043
   77SOL     OW  229   1.853   1.197   0.470 -0.2372 -0.1133  0.5021
   77SOL    HW1  230   1.909   1.230   0.553  0.7837 -0.1938 -0.0465
   77SOL    HW2  231   1.767   1.161   0.503  1.4478  2.0349  0.6562
   78SOL     OW  232   1.666   0.460   0.738 -0.0108 -0.2379  0.5846
   78SOL    HW1  233   1.595   0.403   0.694 -0.1522  1.0492  1.7631
   78SOL    HW2  234   1.760   0.446   0.698  1.1367 -2.1719  2.0960
   79SOL     OW  235   0.282   1.813   0.913  0.0218  0.3257 -0.0329
   79SOL    HW1  236   0.283   1.711   0.914  2.2384 -1.1072 -2.0640
   79SOL    HW2  237   0.318   1.849   1.001 -1.1942 -1.2290 -3.3530
   80SOL     OW  238   0.089   1.786   0.542 -0.2372 -0.3667 -0.5726
   80SOL    HW1  239   0.078   1.835   0.629 -1.1959  2.2498 -0.6066
   80SOL    HW2  240   0.002   1.805   0.485 -2.8197 -1.0496  1.8917
   81SOL     OW  241   1.030   1.783   0.054  0.0491  0.0534  0.2411
   81SOL    HW1  242   0.998   1.867   0.006  0.9767 -0.3388 -1.8195
   81SOL    HW2  243   1.001   1.695   0.007 -0.7267  0.2749 -0.4781
   82SOL     OW  244   1.010   0.272   1.108 -0.1363  0.6507 -0.3250
   82SOL    HW1  245   1.046   0.179   1.108 -1.6854  1.6874 -1.7908
   82SOL    HW2  246   1.075   0.342   1.072 -2.1389 -3.2756 -2.1026
   83SOL     OW  247   0.378   1.024   2.146 -0.0616  0.2522 -0.0555
   83SOL    HW1  248   0.295   1.077   2.115  0.1270  0.0363 -0.4895
   83SOL    HW2  249   0.455   1.080   2.180 -1.3398  2.7914  0.9517
   84SOL     OW  250   0.432   1.223   1.023 -0.5061  0.3661 -0.3950
   84SOL    HW1  251   0.382   1.277   1.091  3.5055  3.4412 -1.2787
   84SOL    HW2  252   0.384   1.237   0.937  0.3672  3.3341  1.1316
   85SOL     OW  253   0.477   1.304   0.597 -0.3566  0.2228 -0.6070
   85SOL    HW1  254   0.560   1.244   0.578  1.5689 -0.1223 -2.0067
   85SOL    HW2  255   0.477   1.389   0.544 -1.5627 -0.6756  2.2844
   86SOL     OW  256   2.957   2.589   1.970 -0.0580  0.5950  0.2622
   86SOL    HW1  257   3.003   2.611   2.055  0.1199 -0.9537 -0.7100
   86SOL    HW2  258   3.023   2.588   1.891 -1.5564 -2.2872  0.0214
   87SOL     OW  259   1.469   1.010   1.043 -0.3358 -0.2264  0.3090
   87SOL    HW1  260   1.482   1.032   1.141  0.1391 -0.2494 -0.3439
   87SOL    HW2  261   1.391   0.940   1.036 -0.5488 -2.0942 -0.1122
   88SOL     OW  262   0.746   0.523   1.335  0.2127 -0.4315  0.2706
   88SOL    HW1  263   0.690   0.449   1.287 -1.0016 -3.0077  0.4518
   88SOL    HW2  264   0.846   0.498   1.345  1.8351 -1.0513 -0.6127
   89SOL     OW  265   2.680   0.455   0.386  0.6434 -0.4418 -0.2275
   89SOL    HW1  266   2.703   0.553   0.394 -1.9775  0.6057 -0.4413
   89SOL    HW2  267   2.693   0.414   0.478  1.7166 -1.7907  0.3343
   90SOL     OW  268   0.527   1.836   2.645 -0.4975  0.0217 -0.0603
   90SOL    HW1  269   0.432   1.808   2.633 -0.6352  0.6852  3.6401
   90SOL    HW2  270   0.577   1.813   2.562 -1.0684  2.3619  0.9926
   91SOL     OW  271   1.574   2.219   0.625  0.1844  0.4446 -0.0118
   91SOL    HW1  272   1.523   2.279   0.565  1.5141 -0.2281  2.7417
   91SOL    HW2  273   1.588   2.127   0.585 -0.0299 -0.2432 -0.2884
   92SOL     OW  274   2.440   0.738   0.570  0.6588 -0.5737  0.4295
   92SOL    HW1  275   2.357   0.709   0.620 -0.8964  0.2662  0.4422
   92SOL    HW2  276   2.411   0.790   0.489 -0.7215 -1.4567 -0.1477
   93SOL     OW  277   1.674   1.048   0.869  0.4447  0.3568  0.4045
   93SOL    HW1  278   1.595   1.011   0.922  1.8118  0.4449  1.1412
   93SOL    HW2  279   1.693   1.001   0.780 -0.4853 -2.2189 -0.4321
   94SOL     OW  280   1.397   2.716   2.084  0.3577 -0.2860  0.0296
   94SOL    HW1  281   1.394   2.751   1.987 -0.7142  0.4640  0.9675
   94SOL    HW2  282   1.415   2.799   2.145 -1.1456  0.4701  0.7207
   95SOL     OW  283   1.294   0.819   1.023 -0.1149  0.3624  0.1599
   95SOL    HW1  284   1.220   0.789   0.952 -3.3056 -2.6258 -1.7689
   95SOL    HW2  285   1.333   0.732   1.060  0.0551 -1.5092  1.5072
   96SOL     OW  286   1.813   2.274   2.405 -0.3208 -0.8548 -0.0317
   96SOL    HW1  287   1.849   2.218   2.328  0.5696 -0.8915  0.6342
   96SOL    HW2  288   1.763   2.213   2.469 -2.7202 -0.4129  1.4891
   97SOL     OW  289   1.906   2.017   1.412  0.1267 -0.0125 -0.0160
   97SOL    HW1  290   1.960   2.079   1.477  0.2616  1.1724 -1.9747
   97SOL    HW2  291   1.963   2.001   1.325 -0.6619 -0.1096  0.5621
   98SOL     OW  292   1.845   0.800   0.853 -0.7747  0.2622  0.0592
   98SOL    HW1  293   1.747   0.779   0.831 -0.7357 -0.4499 -0.6940
   98SOL    HW2  294   1.896   0.716   0.882 -2.4612 -1.9408 -0.0884
   99SOL     OW  295   0.887   1.730   1.560 -0.0319 -0.0753 -0.1626
   99SOL    HW1  296   0.897   1.735   1.664 -0.2796 -2.3801  2.0730
   99SOL    HW2  297   0.801   1.679   1.532 -1.2241 -0.4552 -1.4802
  100SOL     OW  298   2.878   2.449   1.195 -0.2539  0.0824  0.5384
  100SOL    HW1  299   2.943   2.413   1.125 -0.0934  0.2471 -3.2691
  100SOL    HW2  300   2.926   2.519   1.251 -1.1213  2.6267 -1.3900
  101SOL     OW  301   1.311   1.181   0.834  0.1262 -0.2159  0.3554
  101SOL    HW1  302   1.353   1.117   0.904  0.2088  0.1175  2.3683
  101SOL    HW2  303   1.324   1.278   0.861  0.2019 -1.7419  0.1654
  102SOL     OW  304   0.384   0.158   1.176  0.5213 -0.2564 -0.2080
  102SOL    HW1  305   0.338   0.229   1.233 -1.4203  0.7847  0.3955
  102SOL    HW2  306   0.321   0.084   1.154 -0.2644  1.6340 -1.2443
  103SOL     OW  307   1.554   0.309   1.275  0.0974  0.1774 -1.1763
  103SOL    HW1  308   1.503   0.221   1.259 -0.7526  0.8913  0.8533
  103SOL    HW2  309   1.598   0.300   1.369 -2.2685  0.2906 -0.3288
  104SOL     OW  310   0.366   1.677   1.283  0.2476 -0.9665 -0.2962
  104SOL    HW1  311   0.440   1.750   1.281 -0.6983  0.7185 -0.1922
  104SOL    HW2  312   0.375   1.600   1.345 -0.1531  0.1788  0.6542
  105SOL     OW  313   1.719   1.317   0.237 -0.0275  0.7230  0.4327
  105SOL    HW1  314   1.627   1.343   0.265  1.5779  0.2322 -1.9517
  105SOL    HW2  315   1.787   1.279   0.304  1.0274  0.8315  0.8752
  106SOL     OW  316   1.484   1.372   0.324 -0.5242  0.5247  1.0955
  106SOL    HW1  317   1.401   1.321   0.296  0.7593  0.3670  1.1069
  106SOL    HW2  318   1.483   1.389   0.424  3.5200  1.1174  0.6358
  107SOL     OW  319   1.155   1.538   0.997 -0.0076 -0.0734  0.1630
  107SOL    HW1  320   1.080   1.468   0.999 -0.2683 -2.4186 -1.1428
  107SOL    HW2  321   1.138   1.604   0.923 -3.6078 -0.0469 -0.0801
  108SOL     OW  322   1.044   3.093   1.338  0.1861 -0.3190  0.2416
  108SOL    HW1  323   1.120   3.138   1.384 -0.8940  0.0116 -0.5883
  108SOL    HW2  324   1.055   3.099   1.236  2.0690  1.0590 -4.8380
  109SOL     OW  325   0.778   0.368   0.994  0.0131 -0.0470  0.6347
  109SOL    HW1  326   0.718   0.324   0.924 -1.2311 -1.4321 -0.8689
  109SOL    HW2  327   0.856   0.310   1.025 -1.0395 -1.2918  0.1836
  110SOL     OW  328   0.825   0.314   0.570 -0.1031  0.2420  0.5815
  110SOL    HW1  329   0.829   0.411   0.602 -0.3129 -1.7925  1.8592
  110SOL    HW2  330   0.903   0.262   0.611 -0.8775  1.2446  0.0071
  111SOL     OW  331   1.688   1.415   3.079 -0.3178  0.4161  0.1627
  111SOL    HW1  332   1.692   1.366   3.172 -1.7476  0.0139  2.4432
  111SOL    HW2  333   1.693   1.346   3.008 -1.4754  2.0780  0.6401
  112SOL     OW  334   0.644   0.573   1.691  0.0325 -0.1578  0.1137
  112SOL    HW1  335   0.706   0.506   1.652 -3.5631  2.0761 -0.8644
  112SOL    HW2  336   0.567   0.522   1.734 -1.1984  0.2913 -1.1694
  113SOL     OW  337   0.534   0.197   1.441  0.0477  0.1175 -0.4296
  113SOL    HW1  338   0.492   0.254   1.512 -1.4424  1.4864 -0.1553
  113SOL    HW2  339   0.552   0.253   1.355 -0.9377  4.7639 -1.1067
  114SOL     OW  340   0.191   2.784   1.977  0.3796  0.1240 -0.6279
  114SOL    HW1  341   0.178   2.727   1.894 -1.2958  0.4798  0.0400
  114SOL    HW2  342   0.112   2.848   1.985 -2.6715  0.2191 -0.7284
  115SOL     OW  343   0.513   1.569   0.496 -0.2449  0.3263 -0.0508
  115SOL    HW1  344   0.457   1.631   0.557 -0.0066 -1.7576 -0.3891
  115SOL    HW2  345   0.613   1.574   0.512  1.7601 -0.1507  0.8381
  116SOL     OW  346   1.033   1.122   0.911  0.0844  0.1554 -0.0627
  116SOL    HW1  347   0.983   1.038   0.948 -2.9263 -0.7870 -0.6062
  116SOL    HW2  348   1.127   1.101   0.886  0.8549 -0.8688 -0.0209
  117SOL     OW  349   1.978   0.793   0.620  0.2571 -0.0042 -0.0652
  117SOL    HW1  350   2.067   0.749   0.638 -0.1560 -2.1770  0.8719
  117SOL    HW2  351   1.936   0.824   0.709  2.3416  0.3360  1.9255
  118SOL     OW  352   0.083   2.574   1.801  0.5886 -0.5356 -0.7399
  118SOL    HW1  353   0.024   2.557   1.723  0.6373 -1.8103  0.9225
  118SOL    HW2  354   0.170   2.523   1.791  1.1256  2.4117  1.0886
  119SOL     OW  355   0.495   2.082   1.700 -0.0575  0.4163 -0.2822
  119SOL    HW1  356   0.441   2.135   1.631  0.2583 -0.4346 -5.4916
  119SOL    HW2  357   0.436   2.024   1.763 -0.0318  0.3832  1.8486
  120SOL     OW  358   0.593   1.128   2.268  0.0954  0.7174 -0.2392
  120SOL    HW1  359   0.567   1.216   2.313 -1.2092  0.1406  0.2493
  120SOL    HW2  360   0.619   1.055   2.335  1.9536  1.7312  0.1728
  121SOL     OW  361   1.500   1.001   2.078  0.1879 -0.3399  0.2566
  121SOL    HW1  362   1.504   0.963   2.171  0.0112  1.1288  2.1539
  121SOL    HW2  363   1.481   1.101   2.082 -2.0294 -1.1185  0.2532
  122SOL     OW  364   0.005   0.729   0.685 -0.8078 -0.2905 -0.2424
  122SOL    HW1  365  -0.023   0.743   0.782 -2.5948  0.0184 -1.1297
  122SOL    HW2  366  -0.045   0.796   0.621 -1.4206  1.0197 -0.7636
  123SOL     OW  367   2.042   0.723   2.991 -0.2461  0.4356 -0.2489
  123SOL    HW1  368   2.122   0.779   3.016 -1.2180 -0.0093  0.6689
  123SOL    HW2  369   2.072   0.640   2.945 -1.3304 -1.2003  3.8473
  124SOL     OW  370   0.225   0.548   0.709 -0.1388 -0.0401 -0.1511
  124SOL    HW1  371   0.167   0.622   0.682  3.6173 -0.5593  1.3801
  124SOL    HW2  372   0.188   0.511   0.793 -0.5082  0.0665 -0.5733
  125SOL     OW  373   2.565   1.495   2.269  0.0926  0.4025  0.0071
  125SOL    HW1  374   2.578   1.496   2.371 -0.0474  0.3284  1.3573
  125SOL    HW2  375   2.498   1.562   2.233 -0.5505  0.7179  0.4140
  126SOL     OW  376   1.812   1.727   1.902 -0.4550 -0.3242  0.1459
  126SOL    HW1  377   1.731   1.694   1.961  0.9097 -1.8696  0.5304
  126SOL    HW2  378   1.785   1.806   1.842  0.4289 -1.1995  0.3824
  127SOL     OW  379   0.103   0.570   2.399 -0.6276 -0.1179 -0.9178
  127SOL    HW1  380   0.155   0.643   2.450  3.8796  1.8395  2.7131
  127SOL    HW2  381   0.152   0.513   2.327  2.5120 -0.8958 -0.8128
  128SOL     OW  382   1.731   3.019   0.014  0.0861 -0.1361  0.1550
  128SOL    HW1  383   1.730   2.956   0.096  2.2365  2.0459  2.1356
  128SOL    HW2  384   1.803   2.990  -0.053 -1.8611 -0.7794  1.8214
  129SOL     OW  385   0.732   0.262   0.118  0.5451 -0.3368 -0.4854
  129SOL    HW1  386   0.827   0.289   0.089 -1.5092 -2.4609 -1.0133
  129SOL    HW2  387   0.670   0.246   0.034  0.6195 -0.5448 -0.9997
  130SOL     OW  388   1.974   2.164   1.621  0.3431  0.4317 -0.3967
  130SOL    HW1  389   1.906   2.158   1.693  1.1443  1.8222 -1.6224
  130SOL    HW2  390   2.031   2.244   1.643 -0.5545  0.9086  0.7923
  131SOL     OW  391   2.890   0.056   2.015  0.1890  0.0313 -0.0072
  131SOL    HW1  392   2.977  -0.001   2.004  1.1276 -2.5338 -1.2206
  131SOL    HW2  393   2.858   0.040   2.107 -1.8639  2.2671  0.0328
  132SOL     OW  394   2.652   3.043   1.961  0.1963 -0.2230 -0.3202
  132SOL    HW1  395   2.664   2.942   1.979  0.2836  1.4796 -0.2103
  132SOL    HW2  396   2.744   3.090   1.967  1.6508  1.5510  2.2750
  133SOL     OW  397   0.591   0.336   1.201 -0.6769 -0.2311  0.3218
  133SOL    HW1  398   0.647   0.360   1.119  0.4226 -1.5343 -3.3126
  133SOL    HW2  399   0.511   0.284   1.168  2.5656 -0.4917 -1.7943
  134SOL     OW  400   0.557   0.952   0.820  0.2895 -0.4148 -0.1205
  134SOL    HW1  401   0.570   1.034   0.761 -0.7644 -1.9751 -1.1859
  134SOL    HW2  402   0.565   0.971   0.917 -0.4923 -2.8320  1.2071
  135SOL     OW  403   2.283   1.869   1.543 -0.1225  0.7365 -0.4570
  135SOL    HW1  404   2.250   1.774   1.547  1.2505  0.3954 -0.6753
  135SOL    HW2  405   2.341   1.884   1.458 -1.8149 -0.4022  0.1542
  136SOL     OW  406   2.777   1.054   0.860 -0.1069 -0.3431  0.4680
  136SOL    HW1  407   2.679   1.066   0.841  1.8844  0.6142  0.9098
  136SOL    HW2  408   2.791   1.010   0.951 -0.1397  0.5669 -3.1143
  137SOL     OW  409   1.056   1.707   0.828  0.2081 -0.1882  0.2338
  137SOL    HW1  410   0.958   1.699   0.863  1.1824  0.6022  1.4029
  137SOL    HW2  411   1.101   1.800   0.840  2.1372  0.2082 -0.3462
  138SOL     OW  412   0.614   0.295   0.757 -0.2947  0.1244 -0.1340
  138SOL    HW1  413   0.527   0.301   0.705  0.3649 -2.0782  0.2215
  138SOL    HW2  414   0.696   0.315   0.698 -2.1113  2.9827  0.2040
  139SOL     OW  415   2.636   1.144   1.288 -0.2942 -0.1728 -0.6067
  139SOL    HW1  416   2.677   1.231   1.244  0.8499  1.5438  0.6439
  139SOL    HW2  417   2.537   1.135   1.269 -0.9856 -0.5271  0.5341
  140SOL     OW  418   2.655   2.178   2.047  0.4542 -0.0058 -0.2308
  140SOL    HW1  419   2.652   2.111   1.969  0.5533 -0.5349  0.6145
  140SOL    HW2  420   2.716   2.251   2.028  0.0316  0.3746  0.3159
  141SOL     OW  421   0.801   0.473   1.966  0.1265 -0.0646  0.1724
  141SOL    HW1  422   0.833   0.529   2.047  0.2655  0.7997  0.7377
  141SOL    HW2  423   0.744   0.528   1.901  0.1686 -0.5951  1.5493
  142SOL     OW  424   1.589   0.725   0.769  0.0232  0.2684  0.0828
  142SOL    HW1  425   1.608   0.639   0.715 -0.2828 -2.1055  1.8334
  142SOL    HW2  426   1.519   0.786   0.724 -0.4929 -1.3369 -1.1089
  143SOL     OW  427   1.607   3.010   1.496 -0.4112 -0.5299 -0.1779
  143SOL    HW1  428   1.670   2.941   1.461 -2.7348  2.0608  0.5115
  143SOL    HW2  429   1.574   2.995   1.587  0.7334  3.7123 -2.3697
  144SOL     OW  430   0.136   1.009   1.663  0.3675 -0.3592  0.0363
  144SOL    HW1  431   0.169   0.919   1.624 -0.3386  1.4467 -0.7476
  144SOL    HW2  432   0.037   1.016   1.644  1.3201  0.6067 -1.0115
  145SOL     OW  433   0.193   0.049   1.421 -0.0003  0.3448 -0.5592
  145SOL    HW1  434   0.176   0.013   1.327  0.7626 -1.1779  0.8651
  145SOL    HW2  435   0.213   0.151   1.413  0.8971 -0.0843 -0.2468
  146SOL     OW  436   1.397   2.419   1.443 -0.4059  0.0901  0.3407
  146SOL    HW1  437   1.390   2.320   1.463  0.4653  0.6414  0.8005
  146SOL    HW2  438   1.303   2.461   1.423 -1.8036 -0.1666  1.2372
  147SOL     OW  439   0.963   1.947   0.519  0.0561 -0.0347  0.0077
  147SOL    HW1  440   0.940   1.874   0.449 -0.7283  1.1581 -0.6318
  147SOL    HW2  441   0.998   2.038   0.485 -3.1098 -0.4538  2.1700
  148SOL     OW  442   1.448   0.523   1.465  0.0571 -0.2218  0.1637
  148SOL    HW1  443   1.377   0.512   1.536 -1.2044  0.4816  0.6726
  148SOL    HW2  444   1.533   0.472   1.499  0.5337  1.9516 -1.3943
  149SOL     OW  445   0.606   1.537   1.022  0.5625 -0.0369  0.0299
  149SOL    HW1  446   0.515   1.561   0.980  0.0327  1.3032  3.5796
  149SOL    HW2  447   0.599   1.454   1.078  1.6899  3.0440  1.8548
  150SOL     OW  448   2.049   0.222   2.623 -0.2956  0.6573  0.3074
  150SOL    HW1  449   2.001   0.309   2.593 -0.8045  3.2468  0.5938
  150SOL    HW2  450   1.983   0.145   2.632 -0.8099  0.4864 -0.0680
  151SOL     OW  451   2.624   2.222   0.941 -0.4388  0.1817  0.5539
  151SOL    HW1  452   2.580   2.296   0.996 -1.0620 -1.1910  0.4011
  151SOL    HW2  453   2.628   2.132   0.990  3.1696 -3.6605 -0.5655
  152SOL     OW  454   1.855   2.184   0.739  0.2121  0.0313  0.5288
  152SOL    HW1  455   1.936   2.242   0.713 -0.2857  0.9499 -1.6354
  152SOL    HW2  456   1.785   2.193   0.662 -0.7559  2.6741 -0.6834
  153SOL     OW  457   2.779   0.896   1.413  0.1389  0.3035 -0.2439
  153SOL    HW1  458   2.737   0.986   1.397 -0.5853 -2.4460  1.7898
  153SOL    HW2  459   2.860   0.867   1.357 -1.9494 -3.3691 -0.7255
  154SOL     OW  460   1.194   2.093   2.771 -0.2541  0.3983 -0.7980
  154SOL    HW1  461   1.213   2.193   2.793 -0.9871  1.9810 -0.5582
  154SOL    HW2  462   1.195   2.069   2.673  0.9788 -1.5403 -0.3608
  155SOL     OW  463   1.461   2.521   0.018  0.4250  0.9077 -0.0030
  155SOL    HW1  464   1.386   2.449   0.019  0.1029  0.2720  0.5169
  155SOL    HW2  465   1.554   2.484   0.013 -0.1227  0.8356 -1.8421
  156SOL     OW  466   2.811   0.114   1.140  0.4856 -0.3617 -0.1143
  156SOL    HW1  467   2.815   0.169   1.225  1.3281  0.3725  0.2188
  156SOL    HW2  468   2.832   0.176   1.062  0.4510 -1.4895 -0.8972
  157SOL     OW  469   0.777   1.684   0.864 -0.3005 -0.1288 -0.4054
  157SOL    HW1  470   0.725   1.769   0.880 -2.8219 -0.3961  1.0077
  157SOL    HW2  471   0.724   1.603   0.898 -0.6755  1.4901 -0.3512
  158SOL     OW  472   0.303   0.605   1.404 -0.1720 -0.6410  0.0254
  158SOL    HW1  473   0.234   0.679   1.403  1.2154 -0.5084 -0.1443
  158SOL    HW2  474   0.390   0.637   1.446  4.3517 -0.7747 -1.2551
  159SOL     OW  475   1.500   1.017   1.322 -0.0400  0.6601  0.6368
  159SOL    HW1  476   1.516   0.947   1.394  0.3448 -1.0253  1.6736
  159SOL    HW2  477   1.559   1.099   1.332  1.7320 -0.6743  1.0752
  160SOL     OW  478   0.564   1.346   1.850 -0.1893  0.7395 -0.1269
  160SOL    HW1  479   0.569   1.442   1.820 -0.1476  3.5821  0.5032
  160SOL    HW2  480   0.464   1.336   1.867  2.3628  0.7444 -0.9960
  161SOL     OW  481   1.730   0.175   2.804 -0.4661  0.1614  0.3195
  161SOL    HW1  482   1.784   0.098   2.761  0.4238  0.9211 -0.1248
  161SOL    HW2  483   1.766   0.207   2.892 -0.0035 -2.0910  1.7291
  162SOL     OW  484   0.960   2.157   1.727 -0.3353  0.3162 -0.0452
  162SOL    HW1  485   0.869   2.191   1.745  1.1724 -0.2677 -2.6096
  162SOL    HW2  486   1.021   2.204   1.789 -0.0100 -1.8295  2.1354
  163SOL     OW  487   1.504   0.331   0.571 -0.0443 -0.3453  0.2537
  163SOL    HW1  488   1.422   0.301   0.622 -1.3026 -0.0962  0.2879
  163SOL    HW2  489   1.571   0.259   0.545  0.8712 -0.3598  1.0887
  164SOL     OW  490   0.083   0.217   1.058  0.1283  0.3302  0.5130
  164SOL    HW1  491   0.100   0.307   1.011 -1.1586  2.2410  0.7093
  164SOL    HW2  492   0.128   0.136   1.009  1.1749 -2.9379 -1.9871
  165SOL     OW  493   1.789   0.645   0.486 -0.0379  0.1334  0.6489
  165SOL    HW1  494   1.861   0.712   0.522  0.1059 -0.5589  0.5131
  165SOL    HW2  495   1.827   0.599   0.406  0.5878  1.2143  1.3886
  166SOL     OW  496   2.213   0.939   0.851  0.1564  0.1401 -0.4446
  166SOL    HW1  497   2.241   0.883   0.933  0.6573 -0.3711  3.9659
  166SOL    HW2  498   2.117   0.978   0.866 -1.3429  0.6192 -3.0699
  167SOL     OW  499   0.543   0.444   2.321  0.4754  0.3722 -0.0236
  167SOL    HW1  500   0.515   0.347   2.313  1.5119  1.2531  1.1133
  167SOL    HW2  501   0.532   0.495   2.239 -1.0727 -1.2858  1.6817
  168SOL     OW  502   1.881   0.946   2.876  0.5182 -0.0893  0.6023
  168SOL    HW1  503   1.911   0.998   2.794 -1.4330 -0.6415  1.0655
  168SOL    HW2  504   1.943   0.866   2.898  0.1603 -0.5732  0.8517
  169SOL     OW  505   0.070   1.479   0.463 -0.8214 -0.5970 -0.2077
  169SOL    HW1  506   0.065   1.437   0.372  0.7046  2.7805  1.4016
  169SOL    HW2  507   0.077   1.580   0.452 -0.6057  2.5786 -0.3272
  170SOL     OW  508   2.618   0.685   1.472  0.2886 -0.0241 -0.1058
  170SOL    HW1  509   2.621   0.689   1.573  2.3803 -0.2751  0.0319
  170SOL    HW2  510   2.680   0.756   1.432  0.2638  2.4047 -0.1370
  171SOL     OW  511   0.599   1.046   1.131 -0.0574 -0.3316 -0.1128
  171SOL    HW1  512   0.575   1.039   1.226  0.6485  2.9733 -0.1194
  171SOL    HW2  513   0.537   1.107   1.076 -2.3477  0.7503  1.3897
  172SOL     OW  514   0.589   3.022   1.368  0.3851  0.6466  0.0221
  172SOL    HW1  515   0.588   3.010   1.266 -0.4011  1.0557 -1.2196
  172SOL    HW2  516   0.559   3.117   1.392  1.1518 -2.3941 -3.5756
  173SOL     OW  517   1.274   1.138   0.569  0.5284 -0.5065  0.1126
  173SOL    HW1  518   1.356   1.103   0.523  0.7069  1.1468  0.8229
  173SOL    HW2  519   1.298   1.147   0.668  0.3805  1.4028 -0.8353
  174SOL     OW  520   2.465   2.162   0.711 -0.0248 -0.9762  0.1176
  174SOL    HW1  521   2.534   2.159   0.787  0.5591 -0.7732  0.3104
  174SOL    HW2  522   2.375   2.189   0.735  1.4767 -0.0247 -0.4883
  175SOL     OW  523   0.048   2.559   0.368  0.3254 -0.3768 -0.0852
  175SOL    HW1  524  -0.052   2.569   0.344 -2.1481  0.7163  0.5074
  175SOL    HW2  525   0.061   2.591   0.465 -2.1021  0.2170  1.0140
  176SOL     OW  526   1.624   0.336   1.534  0.5219  0.2691 -0.1153
  176SOL    HW1  527   1.710   0.362   1.583 -2.0864  2.9021  0.8978
  176SOL    HW2  528   1.577   0.251   1.574 -2.1370  0.3009  1.5883
  177SOL     OW  529   1.468   1.377   0.585  0.5177  0.3751  0.0287
  177SOL    HW1  530   1.515   1.460   0.623  1.2700  0.9868 -2.7075
  177SOL    HW2  531   1.375   1.359   0.626 -1.1384  0.1256 -1.8773
  178SOL     OW  532   0.193   1.252   0.521  0.1578  0.7250  0.3255
  178SOL    HW1  533   0.152   1.342   0.491  0.0109  2.7007  0.7530
  178SOL    HW2  534   0.300   1.253   0.528 -0.1223 -0.8236 -1.1357
  179SOL     OW  535   1.567   2.997   1.784 -0.0637 -0.0807 -0.1832
  179SOL    HW1  536   1.509   3.052   1.843  0.7192  1.6411 -0.6084
  179SOL    HW2  537   1.665   2.992   1.813  3.0564 -0.3329 -0.9314
  180SOL     OW  538   1.505   2.889   0.370 -0.0557  0.2303  0.5306
  180SOL    HW1  539   1.472   2.984   0.371 -0.7888 -0.3980  2.2456
  180SOL    HW2  540   1.504   2.849   0.464  0.6245  1.3200 -1.6754
  181SOL     OW  541   1.798   1.418   1.174 -0.2652  0.2994  0.4602
  181SOL    HW1  542   1.760   1.408   1.081  1.6047  1.3661 -1.0027
  181SOL    HW2  543   1.783   1.511   1.208  1.0141 -2.3911  0.1170
  182SOL     OW  544   1.752   0.788   2.398 -0.3815 -0.6861  0.1843
  182SOL    HW1  545   1.672   0.851   2.391 -3.4280  1.2864 -0.2784
  182SOL    HW2  546   1.781   0.752   2.307 -1.0404 -0.6620 -0.8279
  183SOL     OW  547   1.424   1.443   0.903  0.1846 -0.1808  0.2529
  183SOL    HW1  548   1.338   1.478   0.937 -1.6314 -2.2205 -0.5163
  183SOL    HW2  549   1.472   1.500   0.828 -1.0763  1.3891 -1.8744
  184SOL     OW  550   0.495   2.704   1.773 -0.5273 -0.0178  0.2753
  184SOL    HW1  551   0.471   2.772   1.848 -0.8280 -1.0821  0.7655
  184SOL    HW2  552   0.511   2.743   1.679  1.0779  0.6412 -1.0381
  185SOL     OW  553   1.166   0.754   1.984 -0.4030 -0.0533  0.2221
  185SOL    HW1  554   1.122   0.842   2.011 -2.8884  0.7841 -1.8417
  185SOL    HW2  555   1.259   0.769   1.947 -2.8067  2.8189  0.1035
  186SOL     OW  556   0.486   2.195   2.438  0.5449  0.3700 -0.9098
  186SOL    HW1  557   0.433   2.281   2.415  0.0316  0.4522  0.9151
  186SOL    HW2  558   0.499   2.131   2.357  1.7306  0.8597 -2.4828
  187SOL     OW  559   2.381   1.349   0.905 -0.0616  0.7281  0.5081
  187SOL    HW1  560   2.426   1.259   0.906 -0.7360  1.3704 -0.5213
  187SOL    HW2  561   2.448   1.418   0.870  1.4571  0.6343 -2.6102
  188SOL     OW  562   0.020   0.280   0.378  0.1142 -0.2714  0.5265
  188SOL    HW1  563   0.027   0.244   0.473 -2.9775 -0.5492  2.6844
  188SOL    HW2  564  -0.061   0.232   0.335 -2.4096 -1.1468 -0.9309
  189SOL     OW  565   0.351   1.546   0.263 -0.3354 -0.3136 -0.0159
  189SOL    HW1  566   0.406   1.564   0.178  0.1217 -0.0171  0.5831
  189SOL    HW2  567   0.401   1.557   0.352 -1.0271 -1.2197  0.5094
  190SOL     OW  568   2.183   2.428   1.651 -0.4437 -0.6031  0.4014
  190SOL    HW1  569   2.251   2.357   1.632 -1.4415 -2.7522  0.2330
  190SOL    HW2  570   2.204   2.490   1.731  2.4868  1.7593 -3.6184
  191SOL     OW  571   1.932   0.211   1.548  0.4485 -0.0390  0.0160
  191SOL    HW1  572   1.960   0.256   1.462 -1.0894 -0.1929  3.3339
  191SOL    HW2  573   1.894   0.283   1.611 -3.5377 -1.2707  0.6701
  192SOL     OW  574   2.307   1.328   0.585  0.0116 -0.1290 -0.3058
  192SOL    HW1  575   2.379   1.403   0.581 -0.0704 -0.0284  0.3163
  192SOL    HW2  576   2.328   1.257   0.654  0.2684  0.5839 -0.0126
  193SOL     OW  577   1.180   1.501   1.346 -0.2445  0.2281  0.2791
  193SOL    HW1  578   1.108   1.471   1.413 -0.4966 -0.3066 -1.3707
  193SOL    HW2  579   1.162   1.471   1.252  2.1069 -0.4195  4.6318
  194SOL     OW  580   0.579   0.711   1.461 -0.0123 -0.7372  0.6359
  194SOL    HW1  581   0.607   0.678   1.549 -2.4939 -1.0721 -0.3745
  194SOL    HW2  582   0.641   0.662   1.395 -1.7196  0.6400  0.8098
  195SOL     OW  583   1.927   0.308   0.232 -0.3876  0.0266  0.4288
  195SOL    HW1  584   2.004   0.238   0.251  0.2786 -3.1880  1.8336
  195SOL    HW2  585   1.836   0.261   0.222 -0.2221 -0.9432 -1.1203
  196SOL     OW  586   1.062   2.302   2.031  0.2090  0.1666 -0.6776
  196SOL    HW1  587   0.997   2.282   2.105 -0.7628  1.0082  0.0197
  196SOL    HW2  588   1.096   2.399   2.036  1.2120  2.3862  0.3835
  197SOL     OW  589   0.274   2.086   2.134  0.4854  0.2540 -0.2734
  197SOL    HW1  590   0.206   2.061   2.062  0.1611 -1.2169 -1.2893
  197SOL    HW2  591   0.223   2.103   2.220 -0.2430  0.2815 -1.6587
  198SOL     OW  592   2.986   1.412   0.674  0.2029 -0.4037 -0.4952
  198SOL    HW1  593   3.023   1.329   0.715 -1.2695 -0.3193  0.6328
  198SOL    HW2  594   3.035   1.435   0.588 -1.8935 -2.0218  0.3904
  199SOL     OW  595   0.279   1.298   1.906 -0.6644  0.1494 -0.8098
  199SOL    HW1  596   0.229   1.215   1.932  0.5752 -2.4950 -2.5352
  199SOL    HW2  597   0.221   1.379   1.918 -0.3776 -0.5627  2.4898
  200SOL     OW  598   2.539   2.701   1.006  0.4220 -0.5698  0.4194
  200SOL    HW1  599   2.636   2.735   1.027  0.5479  1.4430 -0.4381
  200SOL    HW2  600   2.474   2.705   1.083 -0.7736 -0.3024 -1.4096
  201SOL     OW  601   0.644   1.906   0.882  0.0519  0.2695 -0.4302
  201SOL    HW1  602   0.546   1.930   0.856 -0.5104  0.3547 -0.1812
  201SOL    HW2  603   0.676   1.959   0.961 -0.0835 -0.6992 -2.8805
  202SOL     OW  604   0.235   2.136   0.394  0.5445  0.4696 -0.2250
  202SOL    HW1  605   0.178   2.114   0.307  1.1280  0.8554  0.9024
  202SOL    HW2  606   0.324   2.088   0.398 -0.6023  2.2979 -0.8928
  203SOL     OW  607   0.878   0.631   0.957  0.4322 -0.1831  0.2020
  203SOL    HW1  608   0.865   0.694   1.036  2.6560  1.9341 -1.3593
  203SOL    HW2  609   0.823   0.543   0.965 -1.7566 -0.6414  0.6223
  204SOL     OW  610   1.664   0.886   0.191 -0.3720 -0.8464 -0.1080
  204SOL    HW1  611   1.712   0.962   0.141 -1.8101  1.3969  1.1199
  204SOL    HW2  612   1.691   0.797   0.153 -1.5102  0.7889  0.3634
  205SOL     OW  613   0.101   2.209   1.747 -0.3173 -1.0795 -0.8057
  205SOL    HW1  614   0.196   2.255   1.765  1.3969  0.2758  0.8144
  205SOL    HW2  615   0.073   2.155   1.830  0.1276 -0.4458  0.0367
  206SOL     OW  616   1.257   2.545   1.053  0.6529  0.0273 -1.1459
  206SOL    HW1  617   1.258   2.445   1.028 -0.8574  0.8840 -1.3107
  206SOL    HW2  618   1.326   2.570   1.125 -0.6037 -0.4207 -0.7001
  207SOL     OW  619   0.743   2.057   1.091  0.3154  0.4312  0.1257
  207SOL    HW1  620   0.825   1.993   1.093  2.7495 -1.6530  0.6082
  207SOL    HW2  621   0.764   2.141   1.037 -0.8586 -0.4395  1.4592
  208SOL     OW  622   0.454   0.986   1.472 -0.0692  0.3168 -0.2087
  208SOL    HW1  623   0.465   0.970   1.575  0.5828 -0.5609  3.7006
  208SOL    HW2  624   0.495   0.901   1.435  1.2861 -0.8985 -1.6470
  209SOL     OW  625   1.253   0.286   0.365 -0.8009 -0.2577 -0.2525
  209SOL    HW1  626   1.228   0.371   0.412  0.7083  0.5772 -1.2614
  209SOL    HW2  627   1.203   0.204   0.397 -2.6962  2.7909  0.5617
  210SOL     OW  628   0.466   3.006   0.731 -0.2843 -0.2600  0.5160
  210SOL    HW1  629   0.463   3.051   0.639  1.3724  0.0041 -1.9120
  210SOL    HW2  630   0.485   3.074   0.802  0.0421  0.5147 -2.0545
  211SOL     OW  631   1.445   3.076   0.025  0.2017 -0.2384 -0.0116
  211SOL    HW1  632   1.389   2.997   0.001 -0.7877  2.1372 -1.2345
  211SOL    HW2  633   1.536   3.058  -0.015  0.0224  1.4453  1.2474
  212SOL     OW  634   3.028   1.183   0.838 -0.2776  0.4831 -0.1505
  212SOL    HW1  635   2.931   1.153   0.845 -2.2847 -0.6134 -2.2424
  212SOL    HW2  636   3.095   1.106   0.827  0.5225 -0.7922  1.1484
  213SOL     OW  637   0.779   2.778   1.494 -0.2584 -0.7770  0.1808
  213SOL    HW1  638   0.681   2.797   1.530 -0.0630  3.5669  1.7030
  213SOL    HW2  639   0.842   2.792   1.576 -0.7986  2.0820  3.6503
  214SOL     OW  640   2.479   1.234   2.305 -0.6746 -0.5254 -0.7518
  214SOL    HW1  641   2.509   1.323   2.261  2.3047  0.9323 -0.7269
  214SOL    HW2  642   2.408   1.247   2.374  2.3092 -0.0098 -2.8891
  215SOL     OW  643   0.570   1.408   2.758 -0.2389  0.0179  0.1679
  215SOL    HW1  644   0.474   1.392   2.783  0.2539  0.1205 -1.1968
  215SOL    HW2  645   0.632   1.382   2.836  0.6663  1.4748  1.0644
  216SOL     OW  646   0.025   2.053   1.968  0.0883  0.5860  0.3338
  216SOL    HW1  647  -0.028   2.134   2.005  2.7783  3.5039  2.4170
  216SOL    HW2  648  -0.020   1.966   1.999 -0.3151  0.1633  3.0452
  217SOL     OW  649   0.274   0.808   2.299  0.2234  0.2254 -0.4364
  217SOL    HW1  650   0.324   0.889   2.267  0.8379 -2.5792  0.7172
  217SOL    HW2  651   0.324   0.727   2.265  2.7318 -0.3011  1.9476
  218SOL     OW  652   1.471   2.754   1.833 -0.1595  0.0846  0.3232
  218SOL    HW1  653   1.510   2.678   1.779  0.3565  0.9738 -1.4101
  218SOL    HW2  654   1.523   2.840   1.832 -0.2598 -1.5696 -1.0306
  219SOL     OW  655   1.222   0.690   2.234  0.1139  0.0435 -0.2274
  219SOL    HW1  656   1.185   0.600   2.260  0.4450  0.7434 -3.5715
  219SOL    HW2  657   1.202   0.710   2.136 -0.7354 -0.2107  1.3425
  220SOL     OW  658   1.299   0.695   2.640  0.3797  0.6445  0.2374
  220SOL    HW1  659   1.343   0.641   2.566 -1.7175  2.7459 -0.0187
  220SOL    HW2  660   1.368   0.703   2.714 -1.9452  1.9478 -1.7487
  221SOL     OW  661   0.741   0.944   2.417  0.1940 -0.6619 -0.4402
  221SOL    HW1  662   0.705   0.910   2.506 -2.5917  0.2167 -0.0223
  221SOL    HW2  663   0.830   0.994   2.437 -1.5496  0.3264 -0.2058
  222SOL     OW  664   0.206   1.270   1.609  0.3055 -0.1695 -0.3029
  222SOL    HW1  665   0.186   1.170   1.594  1.2637 -0.9339 -0.5784
  222SOL    HW2  666   0.277   1.287   1.677  1.0544  0.0203  1.2907
  223SOL     OW  667   1.104   2.144   0.391 -0.3113 -0.0701  0.3096
  223SOL    HW1  668   1.198   2.145   0.348  2.2677  2.8746 -2.0569
  223SOL    HW2  669   1.034   2.159   0.320 -0.9438 -0.8116  1.0743
  224SOL     OW  670   1.000   0.310   0.048 -0.1777  0.0096  0.1176
  224SOL    HW1  671   0.998   0.327   0.147  0.4171 -1.9363 -0.8490
  224SOL    HW2  672   1.073   0.243   0.021  3.8063  2.2192  0.9553
  225SOL     OW  673   0.269   1.545   1.724 -0.0187  0.0146  0.4020
  225SOL    HW1  674   0.200   1.589   1.660 -0.6633 -0.2367  1.5008
  225SOL    HW2  675   0.227   1.532   1.815  0.5011  0.9674 -0.5522
  226SOL     OW  676   0.727   1.326   1.157 -0.5050  0.0248 -0.4459
  226SOL    HW1  677   0.828   1.341   1.166  1.6733  1.5165  1.7305
  226SOL    HW2  678   0.715   1.247   1.095  2.0777  1.1037 -1.1021
  227SOL     OW  679   0.416   1.293   2.405  0.2136  0.4351 -0.2610
  227SOL    HW1  680   0.473   1.378   2.418  2.4204  0.2271 -0.1791
  227SOL    HW2  681   0.329   1.309   2.357 -0.0880  0.9221 -0.1850
  228SOL     OW  682   0.903   0.595   2.488  0.0451 -0.1685  0.3255
  228SOL    HW1  683   0.987   0.543   2.460 -2.3884  2.1710 -1.5222
  228SOL    HW2  684   0.855   0.653   2.420  1.8897  0.2365  3.7294
  229SOL     OW  685   0.921   1.109   0.392 -0.2784 -0.1207 -0.2193
  229SOL    HW1  686   1.002   1.173   0.390 -0.4239 -2.2787  4.0142
  229SOL    HW2  687   0.945   1.009   0.416 -3.3823 -0.1014  1.1434
  230SOL     OW  688   2.240   1.512   1.917 -0.2058  0.5246 -0.4061
  230SOL    HW1  689   2.176   1.592   1.903 -1.4510 -0.9986  0.0680
  230SOL    HW2  690   2.192   1.419   1.936 -1.2300  2.4525 -0.7522
  231SOL     OW  691   0.517   1.638   1.768 -0.1166 -0.2165  0.2657
  231SOL    HW1  692   0.569   1.648   1.684 -0.7643  1.1927 -0.9107
  231SOL    HW2  693   0.424   1.600   1.759  0.0593 -0.6032  1.2130
  232SOL     OW  694   2.773   0.803   2.626 -0.1945  0.1875  0.2738
  232SOL    HW1  695   2.690   0.857   2.645 -0.1143 -0.7408 -2.2471
  232SOL    HW2  696   2.816   0.822   2.534 -1.1942  0.0871  1.4934
  233SOL     OW  697   1.989   0.549   2.501  0.0988  0.6208  0.4633
  233SOL    HW1  698   2.026   0.550   2.406 -1.1305  0.6592 -1.0728
  233SOL    HW2  699   1.898   0.500   2.499  0.2938  4.2309 -0.3039
  234SOL     OW  700   2.284   1.101   2.149  0.1732 -0.3329  0.6972
  234SOL    HW1  701   2.329   1.170   2.208 -1.7689  1.8648 -2.6837
  234SOL    HW2  702   2.227   1.042   2.208 -2.7566  1.0868  0.3429
  235SOL     OW  703   1.347   0.298   2.302  0.2650 -0.4393  0.1098
  235SOL    HW1  704   1.318   0.208   2.343 -1.3842 -2.0133 -1.0681
  235SOL    HW2  705   1.315   0.302   2.206  0.6820 -0.6746  2.4532
  236SOL     OW  706   0.681   1.918   0.270  0.1205  0.1384  0.2737
  236SOL    HW1  707   0.636   1.923   0.174 -1.3493 -1.1776 -1.5984
  236SOL    HW2  708   0.769   1.865   0.267 -1.5878  0.4790 -1.4684
  237SOL     OW  709   1.097   1.325   2.394  0.2229 -0.5231  0.3196
  237SOL    HW1  710   1.112   1.423   2.401 -0.9476 -1.2742 -2.5058
  237SOL    HW2  711   1.161   1.265   2.449  3.0392 -1.6573 -0.9349
  238SOL     OW  712   2.306   1.345   2.849 -0.1762 -0.0812 -0.7711
  238SOL    HW1  713   2.243   1.421   2.837 -0.4337 -0.9472 -0.2202
  238SOL    HW2  714   2.274   1.285   2.927 -2.1070 -1.8556  1.7364
  239SOL     OW  715   2.933   1.508   2.396 -0.9982  0.1868 -0.2698
  239SOL    HW1  716   2.914   1.436   2.469  0.2148 -3.0316 -0.3195
  239SOL    HW2  717   2.893   1.603   2.415  0.8752  0.9806 -0.6089
  240SOL     OW  718   3.041   1.823   2.050 -0.2871  0.5918  0.7048
  240SOL    HW1  719   2.986   1.740   2.019 -0.5554 -0.8002  0.1680
  240SOL    HW2  720   3.133   1.794   2.082 -1.4271 -1.7481  0.2488
  241SOL     OW  721   1.845   2.871   2.884  0.4468 -0.0566 -0.3068
  241SOL    HW1  722   1.763   2.909   2.844  0.8079 -1.1037  4.4629
  241SOL    HW2  723   1.925   2.884   2.826 -3.8160 -1.2629  0.6525
  242SOL     OW  724   2.951   1.561   0.908 -0.0302 -0.6906  0.1386
  242SOL    HW1  725   2.951   1.501   0.823  0.4983 -1.4388  2.2261
  242SOL    HW2  726   3.015   1.640   0.905  1.6454 -0.1221 -0.2380
  243SOL     OW  727   0.830   1.126   1.587 -0.2608 -0.0932  0.2627
  243SOL    HW1  728   0.794   1.205   1.536 -1.7873 -1.9773 -0.1617
  243SOL    HW2  729   0.773   1.111   1.672  1.9000 -1.2021  2.5215
  244SOL     OW  730   0.566   0.858   2.029  0.1366 -0.1610  0.9746
  244SOL    HW1  731   0.643   0.926   2.035  2.4798 -0.5095 -0.4958
  244SOL    HW2  732   0.476   0.904   2.053  2.1340  2.0011 -0.0663
  245SOL     OW  733   1.661   3.065   2.293 -0.4641 -0.0323  0.1736
  245SOL    HW1  734   1.682   3.156   2.336 -0.7830 -0.4004  0.2035
  245SOL    HW2  735   1.741   3.033   2.243 -1.8802 -2.3632  1.6788
  246SOL     OW  736   1.415   1.262   2.060  0.3653 -0.2527 -0.3167
  246SOL    HW1  737   1.512   1.287   2.083  1.8350 -0.9509 -1.1699
  246SOL    HW2  738   1.376   1.328   1.991 -1.7015  3.2202  0.9394
  247SOL     OW  739   0.944   0.402   2.903 -0.0798 -0.6568 -0.2934
  247SOL    HW1  740   0.937   0.344   2.991 -0.6780  2.2707  1.9595
  247SOL    HW2  741   1.038   0.437   2.898 -0.6899 -3.8023  1.9274
  248SOL     OW  742   0.592   1.844   1.286  0.2450 -0.2975 -0.3083
  248SOL    HW1  743   0.676   1.795   1.258 -2.4529  0.1517  0.5718
  248SOL    HW2  744   0.619   1.930   1.335 -2.7689 -1.1695  0.0076
  249SOL     OW  745   0.586   2.341   2.888  0.1199  0.2725  0.4754
  249SOL    HW1  746   0.556   2.277   2.814 -3.1722  0.0625 -2.3790
  249SOL    HW2  747   0.552   2.307   2.977  0.5177 -0.3761  1.4806
  250SOL     OW  748   2.504   0.625   2.514 -0.4555 -0.2994  0.2431
  250SOL    HW1  749   2.569   0.668   2.582 -2.3002 -0.1752 -0.9464
  250SOL    HW2  750   2.412   0.591   2.554 -2.6268 -3.3836  1.1158
  251SOL     OW  751   1.897   0.536   1.226 -0.3369 -0.3848  0.2246
  251SOL    HW1  752   1.967   0.548   1.299  1.8981  2.5450  2.7414
  251SOL    HW2  753   1.835   0.619   1.219 -1.6337 -1.0282 -2.8207
  252SOL     OW  754   1.768   0.231   0.569  0.0676  0.1538  0.3263
  252SOL    HW1  755   1.824   0.312   0.591  1.1450 -0.7842 -0.6241
  252SOL    HW2  756   1.809   0.150   0.619  2.4326  1.1004  1.0890
  253SOL     OW  757   1.656   2.018   2.223  0.0337 -0.2432 -0.2994
  253SOL    HW1  758   1.744   2.073   2.237  0.8551  1.1169 -1.2094
  253SOL    HW2  759   1.574   2.080   2.229  0.8308  0.1732  1.2585
  254SOL     OW  760   2.017   0.473   2.826 -0.1287 -0.1264  0.1841
  254SOL    HW1  761   1.993   0.393   2.881  2.3548 -0.3818 -0.6502
  254SOL    HW2  762   1.932   0.535   2.830 -0.8303  1.1507 -0.4312
  255SOL     OW  763   0.453   0.405   1.785  0.4901 -0.5437  0.2794
  255SOL    HW1  764   0.363   0.359   1.767 -1.1864 -1.1419  0.5035
  255SOL    HW2  765   0.531   0.342   1.764 -1.0906 -1.9462 -0.5333
  256SOL     OW  766   1.470   0.108   2.834  0.5776 -0.3821  0.0835
  256SOL    HW1  767   1.447   0.102   2.932 -2.7319 -1.7444 -1.0805
  256SOL    HW2  768   1.557   0.155   2.805  1.3206  0.1634  1.2926
  257SOL     OW  769   0.811   2.670   0.570 -0.5332  0.2268 -0.3464
  257SOL    HW1  770   0.739   2.688   0.497 -0.7976  1.7738 -0.1335
  257SOL    HW2  771   0.793   2.724   0.657 -2.0540  0.3082  0.7365
  258SOL     OW  772   0.965   1.755   2.556  0.5634 -0.0991 -0.4458
  258SOL    HW1  773   0.915   1.840   2.583 -0.7350  0.1348 -3.2833
  258SOL    HW2  774   0.945   1.673   2.611 -0.5405  0.7597 -0.2595
  259SOL     OW  775   1.477   0.977   2.805 -0.1826 -0.6561  0.0550
  259SOL    HW1  776   1.484   1.017   2.898  0.4332 -0.3754  2.5608
  259SOL    HW2  777   1.517   0.883   2.794 -1.1139 -1.5791 -1.1882
  260SOL     OW  778   0.457   2.884   1.979  0.2261 -0.2652  0.2261
  260SOL    HW1  779   0.466   2.980   1.955  0.8023 -1.4831  0.4066
  260SOL    HW2  780   0.360   2.856   1.995  1.0640  1.4910  1.4778
  261SOL     OW  781   1.442   1.038   0.272 -0.7981 -0.1215 -0.2780
  261SOL    HW1  782   1.522   0.974   0.256 -0.0647 -0.4595  1.6803
  261SOL    HW2  783   1.359   0.985   0.241 -0.0608  1.3515  0.2786
  262SOL     OW  784   1.582   1.126   0.508 -0.1977 -0.1469  0.0854
  262SOL    HW1  785   1.563   1.219   0.552 -0.3236  2.4125  0.7497
  262SOL    HW2  786   1.567   1.133   0.407  1.6340  0.7063 -0.0700
  263SOL     OW  787   0.262   2.959   2.409 -0.1257  0.1215 -0.5089
  263SOL    HW1  788   0.213   3.004   2.334 -1.0849 -1.4301  0.1966
  263SOL    HW2  789   0.264   3.023   2.487 -1.0620 -0.3532 -2.8832
  264SOL     OW  790   1.658   1.339   2.121 -0.8544 -0.4317 -0.0332
  264SOL    HW1  791   1.726   1.261   2.105 -0.9326  0.2065  0.3526
  264SOL    HW2  792   1.691   1.392   2.204  1.3397  0.0075  0.1351
  265SOL     OW  793   2.442   0.108   2.279  0.0794  0.2133 -0.3595
  265SOL    HW1  794   2.432   0.154   2.374 -1.3781 -1.4364  1.7703
  265SOL    HW2  795   2.489   0.019   2.294  1.9066  1.5398  0.3780
  266SOL     OW  796   1.097   0.448   2.322 -0.1771  0.0363 -0.0299
  266SOL    HW1  797   1.031   0.412   2.253 -0.7931 -0.3173  0.2395
  266SOL    HW2  798   1.172   0.379   2.344  0.0204  0.5230 -0.0445
  267SOL     OW  799   1.153   1.179   2.123  0.2723  0.0791  0.4990
  267SOL    HW1  800   1.123   1.220   2.211  0.2781 -0.4077  0.5442
  267SOL    HW2  801   1.243   1.215   2.092  2.0110 -0.4359 -1.1458
  268SOL     OW  802   2.983   0.727   2.779  0.3599  0.1943 -0.0623
  268SOL    HW1  803   3.025   0.644   2.738  0.4730  0.2968  1.9383
  268SOL    HW2  804   2.928   0.785   2.709 -0.6315  0.3793 -0.6427
  269SOL     OW  805   2.077   1.695   0.011  0.7937 -0.1075 -0.0181
  269SOL    HW1  806   2.039   1.736   0.099  0.5499  0.3051 -0.3408
  269SOL    HW2  807   2.170   1.659   0.033 -0.0279  0.1209 -1.7838
  270SOL     OW  808   0.773   0.798   0.737 -0.5563  0.2264 -0.5727
  270SOL    HW1  809   0.810   0.745   0.814 -2.8024  1.4552  0.5650
  270SOL    HW2  810   0.692   0.848   0.777 -2.4243  1.2537  1.1538
  271SOL     OW  811   2.160   1.253   1.937  0.2874 -0.4823 -0.3833
  271SOL    HW1  812   2.186   1.180   2.001  1.0538 -1.6711 -1.0002
  271SOL    HW2  813   2.126   1.195   1.861 -1.1186 -0.5021  2.0202
  272SOL     OW  814   1.157   2.574   2.871  0.1407  0.5068 -0.5254
  272SOL    HW1  815   1.135   2.596   2.966 -0.3226 -0.4715 -0.9581
  272SOL    HW2  816   1.203   2.484   2.864 -1.2707  0.3328 -0.2818
  273SOL     OW  817   1.977   0.932   2.153 -0.3900  0.1622  0.5667
  273SOL    HW1  818   1.913   0.856   2.167  1.8079  1.4506  0.6444
  273SOL    HW2  819   2.058   0.928   2.216 -0.6119 -1.6932  1.1170
  274SOL     OW  820   2.845   0.699   0.382 -0.4838  0.3394  0.0076
  274SOL    HW1  821   2.837   0.724   0.477  0.8843 -3.6342 -0.7494
  274SOL    HW2  822   2.918   0.630   0.355  1.1278 -2.0329 -2.3201
  275SOL     OW  823   1.779   0.360   2.587 -0.3715 -0.0797 -0.6650
  275SOL    HW1  824   1.736   0.450   2.599  0.8020  1.4600  1.9827
  275SOL    HW2  825   1.762   0.300   2.668  3.6151 -4.3652 -1.6804
  276SOL     OW  826   1.265   1.478   1.867 -0.8608  0.5380 -0.0323
  276SOL    HW1  827   1.183   1.437   1.830  1.1125  1.3101  1.1759
  276SOL    HW2  828   1.237   1.525   1.950 -1.1990 -3.6904 -1.5516
  277SOL     OW  829   2.174   0.925   2.342  0.4728  0.5453  0.2153
  277SOL    HW1  830   2.130   0.902   2.433 -1.1658  1.3546  0.4141
  277SOL    HW2  831   2.244   0.856   2.311  3.0112  0.3286  1.6356
  278SOL     OW  832   2.071   3.013   2.050  0.3678  0.3564  0.0273
  278SOL    HW1  833   2.044   3.109   2.036 -3.1111 -1.7165  0.5772
  278SOL    HW2  834   2.165   3.012   2.086 -3.0576 -1.4904 -0.5940
  279SOL     OW  835   2.998   0.130   1.507  0.4689 -0.0720 -0.1668
  279SOL    HW1  836   3.007   0.161   1.605  1.7265  2.5088 -0.4676
  279SOL    HW2  837   3.015   0.030   1.503 -1.0752  1.3653  0.8763
  280SOL     OW  838   0.119   0.567   1.938 -0.0844  0.3266 -0.0691
  280SOL    HW1  839   0.061   0.520   1.869 -2.0555  2.0248  1.2872
  280SOL    HW2  840   0.152   0.498   2.008 -0.1851 -2.2714  0.9419
  281SOL     OW  841   2.277   1.152   3.037 -0.1569 -0.0333  0.3790
  281SOL    HW1  842   2.365   1.176   3.078 -0.5370  0.8847 -2.2005
  281SOL    HW2  843   2.267   1.049   3.033  1.8811  0.4648 -0.9631
  282SOL     OW  844   1.917   1.662   2.452 -0.3071 -0.0391 -0.5326
  282SOL    HW1  845   2.007   1.623   2.424  1.5401  0.9481 -0.0480
  282SOL    HW2  846   1.872   1.700   2.369  0.4292 -0.9476  1.3786
  283SOL     OW  847   0.400   1.646   2.882 -0.4024  0.1181  0.0479
  283SOL    HW1  848   0.302   1.630   2.906  0.0523  1.7452  2.0752
  283SOL    HW2  849   0.393   1.708   2.797  0.7475 -0.1631 -1.3549
  284SOL     OW  850   2.913   0.908   1.971  0.5085 -0.6450 -0.6148
  284SOL    HW1  851   2.912   1.005   1.993  1.2550 -0.2989 -0.0633
  284SOL    HW2  852   3.002   0.860   1.990  1.8207  2.0018 -0.5049
  285SOL     OW  853   0.515   1.634   0.040 -0.2761 -0.8113  0.6157
  285SOL    HW1  854   0.496   1.632  -0.059  0.2202 -0.4559  0.7107
  285SOL    HW2  855   0.613   1.619   0.066 -0.6178  2.5287 -1.8797
  286SOL     OW  856   1.501   0.951   2.385 -0.1414 -0.5883 -0.2281
  286SOL    HW1  857   1.397   0.945   2.377 -1.6158 -2.9315  0.5215
  286SOL    HW2  858   1.537   0.994   2.469  2.5168 -1.4102  0.7763
  287SOL     OW  859   2.261   0.245   2.082 -0.9261 -0.0228 -0.0527
  287SOL    HW1  860   2.165   0.237   2.105  1.7403  0.3916 -1.2505
  287SOL    HW2  861   2.318   0.214   2.158 -0.7692  1.4626 -0.8877
  288SOL     OW  862   0.954   0.191   2.487  0.5725  0.3068  0.2615
  288SOL    HW1  863   0.874   0.255   2.483  2.1466 -0.8903  1.7412
  288SOL    HW2  864   0.956   0.137   2.399  1.8545 -2.1303  1.4980
  289SOL     OW  865   1.321   0.675   0.236  0.3197  0.2945 -0.2922
  289SOL    HW1  866   1.295   0.770   0.239  3.2896 -1.0952 -0.5444
  289SOL    HW2  867   1.392   0.661   0.306  1.6494 -0.7657 -3.5392
  290SOL     OW  868   0.877   0.322   2.171 -0.0682  1.1396  0.0798
  290SOL    HW1  869   0.847   0.360   2.080  1.4239 -0.4078 -1.0604
  290SOL    HW2  870   0.823   0.238   2.197 -0.5649 -0.9879 -1.0750
  291SOL     OW  871   0.760   0.369   2.522 -0.5110 -0.6156  0.0654
  291SOL    HW1  872   0.704   0.387   2.440  0.8891  0.2745  1.1721
  291SOL    HW2  873   0.825   0.453   2.544  1.8858  1.6490  0.6705
  292SOL     OW  874   1.427   0.478   0.062  0.4701  0.3203  0.0221
  292SOL    HW1  875   1.401   0.567   0.103 -1.3612 -0.7811 -2.6146
  292SOL    HW2  876   1.401   0.403   0.127  0.0410  0.1312  1.8819
  293SOL     OW  877   0.465   0.183   2.321  0.2607 -0.4583  0.8628
  293SOL    HW1  878   0.462   0.135   2.412 -1.7032 -2.8488  1.2362
  293SOL    HW2  879   0.392   0.152   2.260  0.2816  3.1771 -0.6697
  294SOL     OW  880   1.020   0.757   2.711 -0.5708  0.3477 -0.9675
  294SOL    HW1  881   0.973   0.713   2.630 -0.8680  0.5296 -1.8209
  294SOL    HW2  882   1.120   0.743   2.712 -1.2603  0.3899  0.3146
  295SOL     OW  883   1.655   0.591   2.582  0.2936  0.3494 -0.0001
  295SOL    HW1  884   1.687   0.678   2.542 -1.9627  0.8007  0.9432
  295SOL    HW2  885   1.602   0.548   2.504  1.6995 -0.7721 -0.3865
  296SOL     OW  886   1.999   1.119   0.869 -0.4087  0.1942 -0.4557
  296SOL    HW1  887   1.902   1.085   0.873  1.4019  1.2027  2.1132
  296SOL    HW2  888   2.026   1.199   0.814  0.0435 -0.4018  0.8911
  297SOL     OW  889   1.640   2.986   2.770  0.3350  0.2174 -0.3305
  297SOL    HW1  890   1.614   2.923   2.689  3.3151  0.0728 -0.0648
  297SOL    HW2  891   1.581   3.069   2.779  0.0158  1.4275  0.1825
  298SOL     OW  892   0.812   1.415   2.616  0.5040  0.1853 -0.2479
  298SOL    HW1  893   0.879   1.401   2.693 -0.5879 -3.7080  0.0806
  298SOL    HW2  894   0.721   1.383   2.639  1.4139 -0.4591 -3.2672
  299SOL     OW  895   2.863   0.821   2.381  0.3897  0.1633 -0.2350
  299SOL    HW1  896   2.895   0.757   2.313 -2.2464  2.6711 -0.3676
  299SOL    HW2  897   2.876   0.917   2.355  1.5674 -1.6372 -1.6173
  300SOL     OW  898   1.198   0.913   2.396 -0.1386 -0.1774 -0.6473
  300SOL    HW1  899   1.220   0.860   2.478 -1.5499  0.7823 -1.7851
  300SOL    HW2  900   1.189   0.854   2.312 -0.2041  2.0690  0.3582
  301SOL     OW  901   0.946   0.857   0.503 -0.0250 -0.6187 -0.3814
  301SOL    HW1  902   0.882   0.847   0.585 -1.9753  0.8305 -0.7261
  301SOL    HW2  903   0.916   0.798   0.420  1.5151 -2.2765  0.4272
  302SOL     OW  904   3.086   1.889   2.531  0.1079  0.1659  0.1519
  302SOL    HW1  905   3.027   1.869   2.449 -0.4341  1.4767  0.6249
  302SOL    HW2  906   3.024   1.933   2.596 -2.4844 -0.7561  0.5651
  303SOL     OW  907   0.613   2.593   0.070 -0.0272 -0.1239  0.5278
  303SOL    HW1  908   0.700   2.575   0.023 -3.3635 -0.7232  0.2576
  303SOL    HW2  909   0.579   2.508   0.114  0.6192  0.2268  2.1451
  304SOL     OW  910   1.282   1.161   2.506 -0.0621  0.4133  0.3479
  304SOL    HW1  911   1.387   1.167   2.500 -1.1783  1.1100  1.8132
  304SOL    HW2  912   1.253   1.072   2.468 -1.3281  3.0108  2.9012
  305SOL     OW  913   1.150   0.522   0.450 -0.3590  0.3740  0.8287
  305SOL    HW1  914   1.140   0.585   0.530  1.2864 -0.7731 -1.0067
  305SOL    HW2  915   1.191   0.569   0.369  0.4570  0.6341 -0.2770
  306SOL     OW  916   0.636   0.896   2.676  0.0955  0.1907  0.6793
  306SOL    HW1  917   0.698   0.839   2.729 -0.3894  2.8398 -3.3657
  306SOL    HW2  918   0.551   0.918   2.723  2.5927 -3.2964 -2.3456
  307SOL     OW  919   1.437   0.549   2.418  0.4022  0.0912 -0.2141
  307SOL    HW1  920   1.423   0.613   2.338 -1.3843  0.0311 -0.3590
  307SOL    HW2  921   1.410   0.448   2.406  1.7513 -0.0726 -0.6063
  308SOL     OW  922   2.146   0.251   3.096 -0.1655  0.7631 -0.0966
  308SOL    HW1  923   2.151   0.179   3.170 -1.5890 -1.0334 -2.7010
  308SOL    HW2  924   2.210   0.220   3.022  0.9753  1.9961  2.7029
  309SOL     OW  925   1.215   1.115   3.021  0.3667  0.4888 -0.0029
  309SOL    HW1  926   1.194   1.014   3.039  2.3159 -4.0701 -0.1360
  309SOL    HW2  927   1.211   1.128   2.921 -1.0932  2.2051  0.4287
  310SOL     OW  928   0.955   0.798   0.155 -0.1573  0.1330 -0.1480
  310SOL    HW1  929   0.880   0.762   0.214 -1.0433  2.0558  0.3429
  310SOL    HW2  930   1.002   0.725   0.102  2.1739  0.1553  0.1476
  311SOL     OW  931   2.043   0.240   2.272  0.2151 -0.2555 -0.2251
  311SOL    HW1  932   2.081   0.179   2.341 -1.4219  0.3093  0.9539
  311SOL    HW2  933   2.087   0.331   2.271 -1.5776 -2.2310 -2.1455
  312SOL     OW  934   1.876   1.874   2.589  0.9214  0.6780  0.1372
  312SOL    HW1  935   1.963   1.926   2.597  1.5283 -2.6738 -0.3485
  312SOL    HW2  936   1.891   1.789   2.532 -0.0120  1.0297 -1.9781
  313SOL     OW  937   0.450   1.129   2.783 -0.2264  0.2159 -0.4226
  313SOL    HW1  938   0.366   1.134   2.847 -1.7745 -1.1517  1.9782
  313SOL    HW2  939   0.430   1.080   2.696  4.3397  0.0859  0.8797
  314SOL     OW  940   1.772   0.061   1.173 -0.3576 -0.1437  0.2287
  314SOL    HW1  941   1.701   0.042   1.243  2.5794  1.2027  0.3004
  314SOL    HW2  942   1.729   0.099   1.087 -1.3728 -1.6365 -0.5525
  315SOL     OW  943   1.089   2.361   0.553  0.4165 -0.0889 -0.1546
  315SOL    HW1  944   1.101   2.276   0.496  0.9597 -1.2457  0.7195
  315SOL    HW2  945   0.991   2.371   0.566  1.3518  0.0882 -1.3062
  316SOL     OW  946   2.040   2.083   2.734  0.0919 -0.4828 -0.3560
  316SOL    HW1  947   1.950   2.126   2.756 -1.1322 -1.2790 -1.7385
  316SOL    HW2  948   2.121   2.106   2.796 -1.5100 -0.1115  1.8044
  317SOL     OW  949   1.453   1.340   2.879 -0.7145 -0.2663  0.0621
  317SOL    HW1  950   1.461   1.428   2.930  2.1484  2.1450  0.5850
  317SOL    HW2  951   1.472   1.261   2.936 -1.5218  1.9610  1.5100
  318SOL     OW  952   0.924   0.177   2.755  0.2083  0.4268 -0.2925
  318SOL    HW1  953   0.928   0.271   2.793  0.0482  1.0800 -0.5188
  318SOL    HW2  954   0.945   0.184   2.656  1.8203  1.6119  0.8892
  319SOL     OW  955   2.906   1.027   0.416  0.1003  0.1502 -0.8424
  319SOL    HW1  956   3.007   1.040   0.414 -1.0844  2.0645  2.5868
  319SOL    HW2  957   2.861   1.116   0.400  1.0575  1.3198  0.3220
  320SOL     OW  958   1.358   0.990   1.648  0.3982  0.5139 -0.1020
  320SOL    HW1  959   1.287   1.053   1.695 -0.8376 -1.7649  0.9401
  320SOL    HW2  960   1.442   1.044   1.634 -1.0382  1.5425 -0.3963
  321SOL     OW  961   1.094   1.263   0.151  0.3461 -0.3092 -0.6522
  321SOL    HW1  962   1.119   1.230   0.061 -1.4256  0.1797 -0.0676
  321SOL    HW2  963   0.998   1.233   0.171 -0.2990 -2.6911  0.3178
  322SOL     OW  964   0.871   0.925   1.055 -0.3124 -0.1804  0.4325
  322SOL    HW1  965   0.781   0.961   1.091 -0.0871  0.8403  2.2992
  322SOL    HW2  966   0.922   0.874   1.127  0.5056 -0.4067 -0.8364
  323SOL     OW  967   1.689   2.088   2.568 -0.3887  0.2754 -0.4985
  323SOL    HW1  968   1.758   2.011   2.568  0.3809 -1.9659 -1.2827
  323SOL    HW2  969   1.611   2.060   2.622  0.2446  0.4817 -1.1168
  324SOL     OW  970   1.654   1.334   2.663 -0.1055  0.2495 -0.1035
  324SOL    HW1  971   1.582   1.342   2.737 -0.4179  0.7559  2.1460
  324SOL    HW2  972   1.740   1.380   2.694  0.2047 -0.9639  2.8528
  325SOL     OW  973   0.546   2.955   0.239 -0.0942 -0.1403  0.6731
  325SOL    HW1  974   0.496   2.903   0.170  2.4530  2.8955  0.9803
  325SOL    HW2  975   0.491   3.032   0.277 -0.4409  0.7789  0.8152
  326SOL     OW  976   0.937   1.557   3.015  0.3356 -0.1738  0.4586
  326SOL    HW1  977   0.993   1.494   2.952  2.2837 -1.0070 -2.5237
  326SOL    HW2  978   0.873   1.604   2.955  3.0814 -0.7723 -0.1759
  327SOL     OW  979   2.113   0.079   0.220  0.4409 -0.0551 -0.0317
  327SOL    HW1  980   2.067   0.056   0.308  0.3687 -0.7384 -1.6542
  327SOL    HW2  981   2.145  -0.009   0.176  1.2762 -0.8377 -3.3296
  328SOL     OW  982   1.032   1.396   2.795  0.2405 -0.7816  0.4582
  328SOL    HW1  983   1.106   1.450   2.743 -1.0011 -0.6821 -1.9973
  328SOL    HW2  984   1.069   1.303   2.786 -1.1388  0.0948 -2.0208
  329SOL     OW  985   2.542   2.657   1.729  0.6078 -0.1146  0.6002
  329SOL    HW1  986   2.481   2.736   1.747  1.6063  0.4190  0.0833
  329SOL    HW2  987   2.517   2.571   1.773  0.6217  2.4630  1.0502
  330SOL     OW  988   2.900   2.300   2.389  0.0283 -0.1080 -0.2441
  330SOL    HW1  989   2.810   2.252   2.386 -0.0811  0.2163  1.6223
  330SOL    HW2  990   2.930   2.344   2.305  4.0171 -3.0843 -0.9643
  331SOL     OW  991   1.993   0.822   2.543  0.1314 -0.6112  0.2746
  331SOL    HW1  992   2.006   0.721   2.542 -0.9279 -3.9991 -2.3464
  331SOL    HW2  993   1.900   0.850   2.512  2.9246  1.6087 -3.3714
  332SOL     OW  994   1.974   0.578   0.266 -0.2537  0.1929 -0.4439
  332SOL    HW1  995   1.972   0.481   0.229 -2.1026 -1.3876 -3.7430
  332SOL    HW2  996   1.901   0.629   0.215  0.1256  0.5252 -3.0176
  333SOL     OW  997   2.743   0.396   0.670 -0.0006  0.1729  0.3085
  333SOL    HW1  998   2.835   0.396   0.624  0.7801 -0.6668  2.7762
  333SOL    HW2  999   2.703   0.489   0.675 -1.5555  0.7177  2.4089
  334SOL     OW 1000   1.761   0.219   2.350 -0.5671  0.3781 -0.0844
  334SOL    HW1 1001   1.726   0.277   2.420  1.6266  0.6923 -0.3387
  334SOL    HW2 1002   1.865   0.209   2.348 -1.6837 -1.5322 -2.7002
  335SOL     OW 1003   0.967   1.068   2.466  0.4168 -0.2417  0.5739
  335SOL    HW1 1004   1.054   1.026   2.436 -2.5516  1.0682 -1.6577
  335SOL    HW2 1005   0.975   1.172   2.474  0.5628 -1.4702 -0.6538
  336SOL     OW 1006   1.139   0.653   1.359  0.4211  0.4998 -0.3238
  336SOL    HW1 1007   1.225   0.638   1.306 -0.5690  1.2582  0.5254
  336SOL    HW2 1008   1.153   0.726   1.427  0.5467  0.4043 -0.6712
  337SOL     OW 1009   1.644   0.509   2.990  0.5528  0.7322 -0.3209
  337SOL    HW1 1010   1.560   0.477   3.041  0.5502 -1.6913  1.8539
  337SOL    HW2 1011   1.710   0.433   2.983  1.1834  1.4988 -0.3495
  338SOL     OW 1012   0.864   1.065   2.992 -0.3809 -0.2996 -0.3389
  338SOL    HW1 1013   0.848   1.109   3.085 -2.7078 -0.2347  0.3350
  338SOL    HW2 1014   0.966   1.056   2.977  3.1182 -1.0454  1.9297
  339SOL     OW 1015   1.070   0.502   1.917  0.3233  0.6061 -0.6129
  339SOL    HW1 1016   1.102   0.593   1.953 -2.8443 -0.0483  0.5339
  339SOL    HW2 1017   0.968   0.485   1.931 -2.3475  0.2129  0.5924
  340SOL     OW 1018   1.909   1.481   0.776 -0.0384 -0.1953 -0.1090
  340SOL    HW1 1019   1.832   1.428   0.811  0.2574  0.5748 -0.5615
  340SOL    HW2 1020   1.900   1.577   0.804  1.3295  0.3719  0.6951
  341SOL     OW 1021   0.075   2.673   2.826  0.3891 -0.1434 -0.2874
  341SOL    HW1 1022   0.112   2.766   2.810 -0.3877 -0.4020 -3.3469
  341SOL    HW2 1023   0.092   2.620   2.742  1.2434  0.9353 -2.3423
  342SOL     OW 1024   1.818   3.002   0.870 -0.1275  0.4556  0.2141
  342SOL    HW1 1025   1.848   2.976   0.962 -1.8042  0.8321  0.3205
  342SOL    HW2 1026   1.803   2.914   0.817 -1.4274 -1.2873  2.0125
  343SOL     OW 1027   0.352   0.177   0.078  0.0456 -0.1122  0.2622
  343SOL    HW1 1028   0.408   0.203  -0.001  1.0689  0.1865  1.3650
  343SOL    HW2 1029   0.254   0.204   0.071 -0.0536  0.9602  0.2390
  344SOL     OW 1030   0.423   0.558   0.534  0.2500 -0.5278 -0.0725
  344SOL    HW1 1031   0.362   0.580   0.614 -3.1467  1.8411  1.4574
  344SOL    HW2 1032   0.365   0.513   0.463 -2.9054 -0.8561 -1.4473
  345SOL     OW 1033   1.130   2.603   0.260 -0.0369 -0.2793 -0.2793
  345SOL    HW1 1034   1.224   2.608   0.231  0.4385 -1.5599 -0.6099
  345SOL    HW2 1035   1.116   2.644   0.352 -0.1260 -0.2441 -1.2788
  346SOL     OW 1036   3.073   0.554   0.071  0.5542 -0.0089 -0.1557
  346SOL    HW1 1037   3.029   0.645   0.061  0.0823 -1.0460  0.2245
  346SOL    HW2 1038   3.087   0.541   0.172  1.8016  0.1745  0.1612
  347SOL     OW 1039   0.754   1.053   2.050 -0.4308 -0.0772 -0.6307
  347SOL    HW1 1040   0.726   1.096   1.962  3.0800 -0.4868 -0.0883
  347SOL    HW2 1041   0.706   1.092   2.128  2.2475 -2.0315 -2.3309
  348SOL     OW 1042   1.280   2.143   1.999 -0.0385  0.7792  0.0149
  348SOL    HW1 1043   1.191   2.200   1.991 -1.4397  2.9323  1.0034
  348SOL    HW2 1044   1.340   2.168   2.075 -0.1535  1.7943 -1.4247
  349SOL     OW 1045   1.019   3.092   2.273 -0.1460  0.0395  0.0066
  349SOL    HW1 1046   1.042   3.108   2.175  0.0587  0.3020  1.2455
  349SOL    HW2 1047   0.937   3.034   2.290  1.4931  0.2797  0.9723
  350SOL     OW 1048   1.975   0.156   1.988 -0.2131  0.0662  0.2327
  350SOL    HW1 1049   1.903   0.166   1.921 -0.5462 -0.4747 -1.1216
  350SOL    HW2 1050   1.955   0.197   2.078 -1.8858  1.6248 -2.4377
  351SOL     OW 1051   2.165   1.627   1.601  0.1713  0.6151 -0.6278
  351SOL    HW1 1052   2.125   1.628   1.693 -1.4880  2.4106  2.3644
  351SOL    HW2 1053   2.164   1.532   1.560  1.4031 -3.1775  2.4825
  352SOL     OW 1054   1.604   1.081   2.597  0.6157 -0.0064 -0.5706
  352SOL    HW1 1055   1.640   1.177   2.615 -0.3630 -1.4728 -0.7346
  352SOL    HW2 1056   1.558   1.049   2.679  2.1154  0.9451 -3.0045
  353SOL     OW 1057   2.518   2.464  -0.005 -0.0483 -0.1692  1.0018
  353SOL    HW1 1058   2.552   2.363  -0.004 -0.9888 -0.7664  1.4147
  353SOL    HW2 1059   2.517   2.504   0.088  0.4702  1.7897 -0.5630
  354SOL     OW 1060   0.474   2.693   1.128  0.4785 -0.0976  0.1168
  354SOL    HW1 1061   0.447   2.729   1.217  0.5695 -1.0037 -0.6152
  354SOL    HW2 1062   0.391   2.665   1.075 -1.1664  1.5239  2.5938
  355SOL     OW 1063   2.748   2.722   0.690 -0.5393  0.3818 -0.1298
  355SOL    HW1 1064   2.826   2.653   0.679 -0.8427  0.9649 -0.2290
  355SOL    HW2 1065   2.758   2.768   0.783 -1.6239  0.4908 -2.1436
  356SOL     OW 1066   0.251   0.313   1.353  0.0217 -0.1445  0.0814
  356SOL    HW1 1067   0.150   0.316   1.330  1.8185  2.0976 -3.8794
  356SOL    HW2 1068   0.286   0.409   1.359  3.3328 -1.3309  1.7861
  357SOL     OW 1069   1.525   2.136   1.167 -0.8829 -0.7355 -0.5779
  357SOL    HW1 1070   1.527   2.205   1.095  2.3548 -2.5125  0.2372
  357SOL    HW2 1071   1.440   2.086   1.157 -1.5075  2.5118  0.5064
  358SOL     OW 1072   0.908   2.916   0.991 -0.2315 -0.6698  0.4758
  358SOL    HW1 1073   0.941   2.827   1.025 -2.8792 -1.1478 -0.2519
  358SOL    HW2 1074   0.807   2.917   1.005 -1.5285 -2.4305 -0.8962
  359SOL     OW 1075   1.284   3.089   2.397 -0.0846  0.3461  0.5639
  359SOL    HW1 1076   1.191   3.094   2.353  1.9033  1.6556  0.8196
  359SOL    HW2 1077   1.280   3.112   2.500 -0.2270  4.8063  0.5511
  360SOL     OW 1078   0.763   3.038   0.558  0.0444  0.1989 -0.1827
  360SOL    HW1 1079   0.688   3.085   0.511 -1.1992  1.6915  1.9546
  360SOL    HW2 1080   0.733   2.966   0.622  0.4335 -1.0709 -0.1194
  361SOL     OW 1081   0.117   2.515   3.035  0.4637  0.1110 -0.1449
  361SOL    HW1 1082   0.125   2.571   2.947  3.1691 -0.7100  1.4467
  361SOL    HW2 1083   0.178   2.429   3.033  1.2331 -2.4169  0.4702
  362SOL     OW 1084   1.090   0.082   3.029  0.1310  0.3640  0.5652
  362SOL    HW1 1085   1.142  -0.001   2.997  0.4945  1.5980  2.2501
  362SOL    HW2 1086   1.039   0.122   2.951 -0.5813 -3.5253  0.4891
  363SOL     OW 1087   0.053   3.037   0.560  0.5829 -0.4818  0.2602
  363SOL    HW1 1088   0.149   3.011   0.530  2.8484 -0.4516 -0.5560
  363SOL    HW2 1089  -0.012   3.037   0.479  1.2646  1.0579  2.9993
  364SOL     OW 1090   0.315   0.719   2.587  0.8013  0.1570 -0.1021
  364SOL    HW1 1091   0.302   0.761   2.680 -1.6624 -3.0826  0.7901
  364SOL    HW2 1092   0.347   0.787   2.523 -1.3464 -0.0184  0.1581
  365SOL     OW 1093   1.883   1.481   1.686 -1.1169 -0.0560 -0.5938
  365SOL    HW1 1094   1.868   1.490   1.786  2.7875  0.7346  1.2336
  365SOL    HW2 1095   1.803   1.475   1.626  1.8795 -0.4515 -3.2644
  366SOL     OW 1096   2.220   2.958   0.117 -0.6561 -0.0000  0.1890
  366SOL    HW1 1097   2.187   2.862   0.126  1.8219  1.0627 -0.4408
  366SOL    HW2 1098   2.319   2.960   0.154 -2.2906 -0.3175  1.1831
  367SOL     OW 1099   0.606   0.188   2.975 -0.0942  0.7639 -0.0813
  367SOL    HW1 1100   0.606   0.261   2.903 -1.6211  3.1425 -0.3879
  367SOL    HW2 1101   0.683   0.117   2.967  0.3144 -0.0574  0.5155
  368SOL     OW 1102   2.265   2.874   1.071  0.3571 -0.0448  0.2284
  368SOL    HW1 1103   2.259   2.919   1.162  3.0090 -0.0604 -2.0666
  368SOL    HW2 1104   2.333   2.917   1.015 -0.2333 -0.5010  0.9823
  369SOL     OW 1105   0.324   2.360   1.793 -0.0703  0.0031 -0.2655
  369SOL    HW1 1106   0.409   2.387   1.745 -0.3302  2.1271  2.0825
  369SOL    HW2 1107   0.338   2.364   1.894 -0.1127  1.2474 -2.4103
  370SOL     OW 1108   2.796   2.246   0.390 -0.0179  0.0862 -0.2968
  370SOL    HW1 1109   2.864   2.235   0.465  0.4943 -1.3327  1.7362
  370SOL    HW2 1110   2.785   2.345   0.369  0.0754 -0.6639 -1.9452
  371SOL     OW 1111   0.656   2.840   0.736 -0.0818  0.5683 -0.2189
  371SOL    HW1 1112   0.578   2.906   0.740  1.7481  1.6750  0.5759
  371SOL    HW2 1113   0.668   2.789   0.826 -0.6709 -2.2371 -1.5619
  372SOL     OW 1114   1.566   1.172   1.598 -0.1906  0.4067 -0.1602
  372SOL    HW1 1115   1.638   1.133   1.532  2.8265 -1.0666 -1.9562
  372SOL    HW2 1116   1.554   1.272   1.586  0.3515  1.4658 -3.4788
  373SOL     OW 1117   0.148   0.748   1.612 -0.4339 -0.2175 -0.0636
  373SOL    HW1 1118   0.061   0.697   1.603  0.3809  1.5631 -1.2439
  373SOL    HW2 1119   0.214   0.697   1.674 -0.9354  0.2646  4.6523
  374SOL     OW 1120   2.174   0.037   2.433  0.0304 -0.2211  0.7012
  374SOL    HW1 1121   2.166   0.096   2.514  1.5715 -1.6099  0.5301
  374SOL    HW2 1122   2.270   0.025   2.402  1.0215 -1.6425 -0.0273
  375SOL     OW 1123   1.455   1.795   0.530 -0.2034 -1.1040 -0.0200
  375SOL    HW1 1124   1.355   1.819   0.534  3.5720  0.4503  0.7435
  375SOL    HW2 1125   1.480   1.734   0.452  0.0441  0.1243 -1.6110
  376SOL     OW 1126   3.098   2.404   1.588  0.2311  0.4414 -0.3454
  376SOL    HW1 1127   3.153   2.335   1.642 -0.7639 -2.4505  2.3373
  376SOL    HW2 1128   2.998   2.384   1.604  2.3193 -0.7625 -1.3652
  377SOL     OW 1129   1.039   1.963   1.302 -0.0987 -0.6099  0.1788
  377SOL    HW1 1130   0.966   2.007   1.362 -3.5565  1.0305 -1.8034
  377SOL    HW2 1131   1.089   1.885   1.344 -1.4300 -1.2999 -0.4630
  378SOL     OW 1132   1.732   2.207   1.322  0.0013 -0.3362 -0.2375
  378SOL    HW1 1133   1.761   2.136   1.388 -1.6004  0.4937  1.8341
  378SOL    HW2 1134   1.657   2.170   1.261 -3.1543  0.7934 -1.4018
  379SOL     OW 1135   1.097   2.883   1.972  0.9818  0.3552  0.0785
  379SOL    HW1 1136   1.100   2.835   2.061 -1.0464  0.7626 -0.0663
  379SOL    HW2 1137   1.146   2.828   1.902 -1.0110 -0.5597  2.3079
  380SOL     OW 1138   1.091   0.011   1.069 -0.4022 -0.3753  0.4521
  380SOL    HW1 1139   1.017  -0.050   1.034  1.5333 -3.0687  0.2260
  380SOL    HW2 1140   1.178  -0.034   1.048 -3.4724  1.0163 -0.8478
  381SOL     OW 1141   0.672   2.112   1.347 -0.1570  0.0086 -0.0637
  381SOL    HW1 1142   0.764   2.106   1.388 -3.7270  3.0074 -0.1861
  381SOL    HW2 1143   0.677   2.119   1.245  2.4161 -0.4771 -0.8610
  382SOL     OW 1144   0.103   0.964   0.811  0.0607  0.0480 -0.3481
  382SOL    HW1 1145   0.152   0.938   0.897 -1.1893  1.0439  3.1602
  382SOL    HW2 1146   0.094   0.888   0.746  0.6616  0.0112 -2.3043
  383SOL     OW 1147   0.507   0.049   0.482 -0.9583  0.2255 -0.2429
  383SOL    HW1 1148   0.434   0.022   0.417  0.2761 -1.9721  1.2148
  383SOL    HW2 1149   0.566   0.128   0.450  0.9931  2.0977  1.4394
  384SOL     OW 1150   1.053   2.764   0.484 -0.1873  0.0347 -0.1639
  384SOL    HW1 1151   0.956   2.725   0.495 -1.4705 -0.2065  0.4131
  384SOL    HW2 1152   1.040   2.856   0.451 -0.8801 -3.0781 -1.9214
  385SOL     OW 1153   1.203   2.737   1.756 -0.0209 -0.5517  0.2590
  385SOL    HW1 1154   1.304   2.747   1.755 -1.4653 -0.6903  1.5711
  385SOL    HW2 1155   1.179   2.641   1.722 -0.7196 -1.3116 -1.8103
  386SOL     OW 1156   0.626   0.066   2.577  0.4763  0.5901 -0.3668
  386SOL    HW1 1157   0.726   0.055   2.573 -2.2589  0.3796  0.2053
  386SOL    HW2 1158   0.609   0.155   2.617  3.9051  1.6394  1.3821
  387SOL     OW 1159   0.452   1.250   1.399 -0.4436 -0.1347  0.3358
  387SOL    HW1 1160   0.553   1.280   1.408  1.1133 -0.0535 -1.0991
  387SOL    HW2 1161   0.435   1.151   1.418 -0.0816 -1.8157  0.9732
  388SOL     OW 1162   1.409   0.102   0.831  0.3830 -0.1682 -0.5182
  388SOL    HW1 1163   1.354   0.182   0.834  0.5351 -0.9803  2.2689
  388SOL    HW2 1164   1.386   0.048   0.749  2.5013 -0.4905  2.4891
  389SOL     OW 1165   0.077   0.212   0.084 -0.2900 -0.1321  0.1934
  389SOL    HW1 1166   0.058   0.262   0.172 -0.5074  0.7777 -2.1943
  389SOL    HW2 1167   0.029   0.249   0.003 -0.1526 -0.7792  0.6906
  390SOL     OW 1168   1.460   0.884   0.574  0.2165  0.4484 -0.6280
  390SOL    HW1 1169   1.518   0.970   0.556  0.0234  1.9123  1.5315
  390SOL    HW2 1170   1.476   0.820   0.499  0.2186 -1.5968  0.4000
  391SOL     OW 1171   2.672   2.058   1.819  0.0234  0.0737 -0.3133
  391SOL    HW1 1172   2.745   2.076   1.745  1.5253 -0.1829 -2.5100
  391SOL    HW2 1173   2.649   1.959   1.836  0.6222  0.3257  1.0509
  392SOL     OW 1174   2.094   1.353   1.552 -0.0939  0.3513  0.2833
  392SOL    HW1 1175   2.063   1.335   1.459  0.2667 -0.8509 -0.0909
  392SOL    HW2 1176   2.017   1.405   1.597  2.0210  1.0082  0.8614
  393SOL     OW 1177   0.153   2.930   0.197 -0.1751  0.1953 -0.3382
  393SOL    HW1 1178   0.150   2.830   0.185  0.0715 -2.4459  1.6350
  393SOL    HW2 1179   0.062   2.964   0.238 -2.2490 -0.2551 -0.3887
  394SOL     OW 1180   0.261   2.543   2.635  0.0950 -0.0220 -0.5017
  394SOL    HW1 1181   0.341   2.580   2.690  0.7216  1.8872  2.0477
  394SOL    HW2 1182   0.232   2.616   2.571 -2.6795  1.5921  0.9290
  395SOL     OW 1183   1.105   1.322   0.488 -0.4851  0.4955  0.6339
  395SOL    HW1 1184   1.164   1.242   0.509  0.4622 -0.6951  0.2441
  395SOL    HW2 1185   1.144   1.401   0.544 -0.2946 -0.1752  0.5892
  396SOL     OW 1186   1.777   1.781   2.213  0.8190  0.1345 -0.0410
  396SOL    HW1 1187   1.741   1.872   2.236 -1.2841 -1.6877 -1.6623
  396SOL    HW2 1188   1.707   1.715   2.184  1.2942  2.0138 -0.8881
  397SOL     OW 1189   0.814   3.082   1.512  0.8691  0.3817 -0.0687
  397SOL    HW1 1190   0.724   3.061   1.467  2.0260  0.4623  0.5633
  397SOL    HW2 1191   0.893   3.064   1.447  2.2085 -1.2103  0.3988
  398SOL     OW 1192   0.685   2.691   0.973 -0.1856  0.2561 -0.1789
  398SOL    HW1 1193   0.597   2.671   1.024  0.1421  1.6407  0.0582
  398SOL    HW2 1194   0.762   2.634   1.013  2.3266 -0.1837  0.0395
  399SOL     OW 1195   0.421   1.954   1.115 -0.1557 -0.2370  0.0385
  399SOL    HW1 1196   0.420   2.056   1.118 -0.4194  1.9672 -1.9181
  399SOL    HW2 1197   0.487   1.905   1.179  0.0076  0.1162  1.3359
  400SOL     OW 1198   0.751   1.541   0.146 -0.5403 -0.1585  0.2745
  400SOL    HW1 1199   0.802   1.512   0.065 -2.1963  0.8444  2.4386
  400SOL    HW2 1200   0.779   1.506   0.238 -0.2393  1.7987  1.3482
  401SOL     OW 1201   1.132   2.454   1.381  0.3500  0.4770  0.0003
  401SOL    HW1 1202   1.145   2.381   1.312  0.3166  0.5400 -1.3453
  401SOL    HW2 1203   1.059   2.516   1.347 -0.9329  2.2508  1.4359
  402SOL     OW 1204   0.140   2.422   0.777  0.2747  0.0043  0.2924
  402SOL    HW1 1205   0.116   2.490   0.706  1.7197 -2.1580  1.6024
  402SOL    HW2 1206   0.151   2.332   0.730 -0.4652 -0.0157  0.5670
  403SOL     OW 1207   2.811   0.386   1.067 -0.0929  0.8292 -0.4296
  403SOL    HW1 1208   2.902   0.429   1.054  0.3093 -3.5700  0.7491
  403SOL    HW2 1209   2.758   0.445   1.131 -0.9702 -1.0622 -0.5876
  404SOL     OW 1210   1.156   0.061   0.495 -0.6232  0.4095  0.4693
  404SOL    HW1 1211   1.248   0.041   0.529  0.7720  1.9705  1.8999
  404SOL    HW2 1212   1.100  -0.017   0.473  2.6035 -1.7620  3.0553
  405SOL     OW 1213   2.001   2.435   1.447  0.4620 -0.4648  0.1349
  405SOL    HW1 1214   1.906   2.447   1.484  1.8058  0.8859 -2.6179
  405SOL    HW2 1215   2.067   2.423   1.526 -1.6407 -1.0435  1.3742
  406SOL     OW 1216   2.859   2.075   1.610  0.6509 -0.5841 -0.3233
  406SOL    HW1 1217   2.943   2.027   1.641  1.4522 -1.1141  1.6317
  406SOL    HW2 1218   2.869   2.096   1.512 -0.7115 -2.1142 -1.7188
  407SOL     OW 1219   0.464   2.461   0.752 -0.1719  0.7547  0.3123
  407SOL    HW1 1220   0.487   2.526   0.677 -0.7540 -0.3003  0.9614
  407SOL    HW2 1221   0.373   2.419   0.740 -1.3078  1.0059 -2.4015
  408SOL     OW 1222   0.272   2.884   0.479 -0.5661 -0.0322 -0.0187
  408SOL    HW1 1223   0.292   2.925   0.389  1.5198  2.5779  0.2076
  408SOL    HW2 1224   0.358   2.876   0.530 -2.4161  1.8889 -1.7678
  409SOL     OW 1225   0.825   2.244   0.931  0.1117  0.4469 -0.1986
  409SOL    HW1 1226   0.832   2.329   0.987 -0.0467 -1.0440 -1.0687
  409SOL    HW2 1227   0.766   2.265   0.851 -0.6420  0.0020 -0.3119
  410SOL     OW 1228   0.513   1.936   0.050  0.1109 -0.4701 -0.3014
  410SOL    HW1 1229   0.484   1.842   0.079 -0.3691  0.8366  3.4972
  410SOL    HW2 1230   0.544   1.943  -0.047 -1.6264 -0.2733  1.1298
  411SOL     OW 1231   2.270   1.579   1.055  0.0959  0.3907  0.3549
  411SOL    HW1 1232   2.334   1.625   0.989  0.8311 -3.7929  1.1747
  411SOL    HW2 1233   2.277   1.478   1.053  0.7366 -0.3174  0.0411
  412SOL     OW 1234   1.480   2.401   0.415  0.0263 -0.1154  0.8149
  412SOL    HW1 1235   1.431   2.491   0.407  1.4466 -0.5037 -0.7422
  412SOL    HW2 1236   1.439   2.326   0.360  1.3054  0.5404 -2.8563
  413SOL     OW 1237   1.139   1.971   0.880 -0.1578  0.3023 -0.8373
  413SOL    HW1 1238   1.109   2.058   0.836  1.4391  0.2358  0.6662
  413SOL    HW2 1239   1.225   1.933   0.840  0.1533 -1.2929  2.2735
  414SOL     OW 1240   1.428   2.594   2.511 -0.1102 -0.1821 -0.4363
  414SOL    HW1 1241   1.501   2.563   2.447  0.1857 -0.8297  1.5453
  414SOL    HW2 1242   1.447   2.572   2.608  3.8830  0.5071  1.3004
  415SOL     OW 1243   0.992   2.685   1.347 -0.0724  0.9742 -0.1456
  415SOL    HW1 1244   1.071   2.740   1.383  1.7050 -0.1404  0.3191
  415SOL    HW2 1245   0.909   2.706   1.395  0.4761 -5.1628 -1.4961
  416SOL     OW 1246   0.070   2.460   1.328 -0.6196 -0.0808 -0.1296
  416SOL    HW1 1247   0.045   2.441   1.426  0.3885  2.5491  3.0278
  416SOL    HW2 1248   0.091   2.372   1.283  0.4899  1.8871  0.9826
  417SOL     OW 1249   1.463   2.964   2.181 -0.1643  0.6103  0.4501
  417SOL    HW1 1250   1.382   2.978   2.241 -0.8607  0.9520 -1.1522
  417SOL    HW2 1251   1.548   3.003   2.224  1.7747 -0.8399 -0.8156
  418SOL     OW 1252   2.829   2.850   1.134 -0.7321  0.5504  0.0751
  418SOL    HW1 1253   2.832   2.792   1.216 -0.3813 -0.2250 -0.2069
  418SOL    HW2 1254   2.919   2.902   1.120  2.4783  2.2760  0.2481
  419SOL     OW 1255   0.180   3.048   1.124  0.0469 -0.4399 -0.1724
  419SOL    HW1 1256   0.076   3.044   1.116 -3.1761 -3.0981 -1.1897
  419SOL    HW2 1257   0.221   2.993   1.051 -0.2400  0.6756  0.8939
  420SOL     OW 1258   1.421   3.095   0.579 -1.1995  0.3024 -0.4095
  420SOL    HW1 1259   1.463   3.023   0.638  0.4886  1.8839  3.4049
  420SOL    HW2 1260   1.488   3.139   0.515  2.1134 -2.3390  3.1864
  421SOL     OW 1261   2.262   0.460   0.110  0.2366  0.0185  0.2928
  421SOL    HW1 1262   2.201   0.384   0.077 -0.4503  0.6898 -0.2245
  421SOL    HW2 1263   2.324   0.432   0.186 -0.0995 -0.8419 -2.3404
  422SOL     OW 1264   1.378   2.119   1.513  0.4511 -0.1214 -0.7848
  422SOL    HW1 1265   1.474   2.105   1.521 -0.9647  1.1422 -1.9426
  422SOL    HW2 1266   1.343   2.052   1.449 -0.1113 -0.2614  1.9150
  423SOL     OW 1267   1.247   1.957   1.126 -0.2153 -0.4896 -0.0461
  423SOL    HW1 1268   1.179   1.969   1.199  1.0493 -1.0273  0.9453
  423SOL    HW2 1269   1.232   2.005   1.041 -0.0537  0.4843  2.8373
  424SOL     OW 1270   1.056   2.779   2.218  0.4073 -0.2485  0.1455
  424SOL    HW1 1271   1.109   2.734   2.295 -0.2978  0.4214  1.5928
  424SOL    HW2 1272   0.975   2.832   2.249 -1.9401 -0.5006  1.2421
  425SOL     OW 1273   0.689   0.558   0.603  0.3312 -0.0481  0.0776
  425SOL    HW1 1274   0.692   0.652   0.649 -1.1541 -0.0795 -1.0423
  425SOL    HW2 1275   0.592   0.537   0.575 -0.1813 -0.0057 -0.8273
  426SOL     OW 1276   0.959   3.003   0.384  0.5610 -0.1988 -0.7053
  426SOL    HW1 1277   0.893   3.019   0.459 -0.1967  0.0485  2.6274
  426SOL    HW2 1278   0.935   3.048   0.294 -1.5034 -1.4277 -1.4646
  427SOL     OW 1279   1.001   1.281   1.137 -0.0069 -0.0035 -0.1854
  427SOL    HW1 1280   1.039   1.238   1.051  0.9590  2.2147 -2.0314
  427SOL    HW2 1281   1.028   1.242   1.229  1.5244 -2.1562 -0.3698
  428SOL     OW 1282   0.715   2.232   1.815  0.1460  0.3689  0.0436
  428SOL    HW1 1283   0.701   2.259   1.913 -3.1634  0.4930 -0.0608
  428SOL    HW2 1284   0.639   2.174   1.778  0.4284 -0.3531 -1.5368
  429SOL     OW 1285   0.597   2.283   0.515  0.2549 -0.7251  0.3295
  429SOL    HW1 1286   0.522   2.285   0.587  1.9608  1.6973  0.7869
  429SOL    HW2 1287   0.641   2.188   0.511  1.1887 -0.7474 -1.3298
  430SOL     OW 1288   2.843   2.738   2.608  0.4868  0.0513  0.6992
  430SOL    HW1 1289   2.916   2.743   2.679  0.0124 -1.1058 -2.2514
  430SOL    HW2 1290   2.772   2.669   2.630  3.1019 -0.4785 -2.4837
  431SOL     OW 1291   0.176   2.659   0.154  0.3696  0.1553 -0.0637
  431SOL    HW1 1292   0.126   2.628   0.238  2.1510 -2.0023  1.9721
  431SOL    HW2 1293   0.150   2.609   0.070 -0.6566  3.3975  0.5419
  432SOL     OW 1294   0.015   2.982   2.047 -0.1605  0.2341 -0.1586
  432SOL    HW1 1295  -0.059   2.936   2.100 -0.0245 -0.1027  2.2429
  432SOL    HW2 1296   0.087   3.007   2.116 -0.8073 -0.8650 -1.2346
  433SOL     OW 1297   0.466   2.486   1.448 -0.2447 -0.8291 -0.7385
  433SOL    HW1 1298   0.533   2.479   1.528  3.5452 -2.3908  0.3090
  433SOL    HW2 1299   0.437   2.394   1.422 -1.2143 -0.6635  0.4539
  434SOL     OW 1300   1.810   2.815   1.488 -0.0386  0.0403 -0.1793
  434SOL    HW1 1301   1.742   2.755   1.447  0.0187  3.7974 -0.9613
  434SOL    HW2 1302   1.851   2.777   1.573 -0.2991  0.8764 -2.0655
  435SOL     OW 1303   1.399   1.842   1.408 -0.4008  0.1638  0.2441
  435SOL    HW1 1304   1.431   1.753   1.369  0.5898 -1.0336 -0.8005
  435SOL    HW2 1305   1.297   1.834   1.429 -3.1178 -3.8486 -1.5605
  436SOL     OW 1306   2.355   1.881   0.311 -0.3309  0.1276 -0.3176
  436SOL    HW1 1307   2.285   1.920   0.254  2.6214  0.9531  1.7266
  436SOL    HW2 1308   2.338   1.783   0.334  0.5275 -2.4231 -0.6232
  437SOL     OW 1309   0.648   0.238   0.386  0.1080  0.2632  0.5226
  437SOL    HW1 1310   0.679   0.244   0.287  1.8723  2.1582  0.2150
  437SOL    HW2 1311   0.719   0.274   0.453  0.8855  0.4696 -0.5953
  438SOL     OW 1312   0.254   1.792   2.650 -0.1051  0.2115 -0.2953
  438SOL    HW1 1313   0.274   1.887   2.685 -0.1104  1.7591 -2.2596
  438SOL    HW2 1314   0.154   1.789   2.624 -0.0116  2.7566  1.1529
  439SOL     OW 1315   1.886   1.054   2.626  0.2310 -0.5269 -0.0104
  439SOL    HW1 1316   1.791   1.040   2.596  1.3449  2.2834 -0.4878
  439SOL    HW2 1317   1.951   0.974   2.616 -0.4588  0.0962 -1.0098
  440SOL     OW 1318   0.775   3.091   2.880  0.1034 -0.1303 -0.9320
  440SOL    HW1 1319   0.838   3.146   2.818 -0.2113 -1.2439 -2.9690
  440SOL    HW2 1320   0.774   2.991   2.865 -0.8735 -0.4323  2.9653
  441SOL     OW 1321   3.019   3.030   0.322 -0.3265  0.3132  0.0083
  441SOL    HW1 1322   2.986   3.131   0.306 -1.6344  1.6667 -2.0401
  441SOL    HW2 1323   2.943   2.965   0.299  1.7139 -3.4094  0.7405
  442SOL     OW 1324   0.256   0.429   0.356  0.0732 -0.3979 -0.0341
  442SOL    HW1 1325   0.174   0.368   0.357 -1.4731 -2.4540 -0.3252
  442SOL    HW2 1326   0.279   0.463   0.260  1.1750 -0.5838 -0.1726
  443SOL     OW 1327   0.927   2.733   1.704  0.1547 -0.0085 -0.6086
  443SOL    HW1 1328   1.016   2.753   1.752 -0.6753  0.8275  0.9104
  443SOL    HW2 1329   0.918   2.632   1.685  0.1284 -0.9610  1.5779
  444SOL     OW 1330   2.655   2.189   2.326  0.0321 -0.1246  0.6349
  444SOL    HW1 1331   2.655   2.175   2.224 -0.9789 -2.0907 -1.7514
  444SOL    HW2 1332   2.608   2.124   2.385  1.7865 -0.4366  0.9939
  445SOL     OW 1333   0.715   0.086   1.931  0.0278 -0.3031  0.0701
  445SOL    HW1 1334   0.762   0.010   1.877  0.3078 -0.3467 -0.5223
  445SOL    HW2 1335   0.748   0.091   2.024  1.7463  0.2464 -3.4458
  446SOL     OW 1336   0.822   2.461   1.092  0.2174 -0.4676  0.2319
  446SOL    HW1 1337   0.782   2.459   1.190  0.2998  0.0897  3.8469
  446SOL    HW2 1338   0.908   2.521   1.086  3.1859 -0.1255  0.4331
  447SOL     OW 1339   0.093   2.669   0.630 -0.5114 -0.5058  0.2000
  447SOL    HW1 1340   0.075   2.705   0.725  1.4339  1.0750  0.4764
  447SOL    HW2 1341   0.150   2.735   0.572  0.1854  0.1788 -4.0179
  448SOL     OW 1342   0.504   0.104   0.932 -0.4791  0.0281  0.1157
  448SOL    HW1 1343   0.545   0.179   0.879 -0.3524 -0.8805 -0.1636
  448SOL    HW2 1344   0.456   0.133   1.017 -0.2872 -3.4922 -1.2157
  449SOL     OW 1345   1.626   2.525   0.915  0.3869  0.1654  0.3118
  449SOL    HW1 1346   1.578   2.539   0.823  0.9755  0.1334 -1.0106
  449SOL    HW2 1347   1.641   2.613   0.963  0.2084  1.5256 -0.4128
  450SOL     OW 1348   1.239   2.601   0.644 -0.4845  0.0550  0.1469
  450SOL    HW1 1349   1.172   2.669   0.615  2.7670 -0.7168 -1.8904
  450SOL    HW2 1350   1.210   2.509   0.612 -0.7162  0.3018  1.2873
  451SOL     OW 1351   0.987   1.426   1.522  0.1950 -0.5544 -0.4957
  451SOL    HW1 1352   0.884   1.436   1.518 -0.1920  0.1342 -0.0585
  451SOL    HW2 1353   1.009   1.335   1.481 -1.6187 -1.1779  0.4472
  452SOL     OW 1354   0.292   3.040   3.061 -0.4412  0.6147  0.1765
  452SOL    HW1 1355   0.305   3.117   3.122 -0.0639  0.9748 -0.4820
  452SOL    HW2 1356   0.235   2.968   3.105 -3.0701  0.0706  1.7359
  453SOL     OW 1357   0.609   2.970   1.110 -0.2189  0.3611 -0.0432
  453SOL    HW1 1358   0.567   3.020   1.032 -0.4630 -2.2153  3.1273
  453SOL    HW2 1359   0.574   2.876   1.118  4.1509 -1.8433 -0.0370
  454SOL     OW 1360   0.498   2.837   1.526  0.3289  0.0917 -0.2175
  454SOL    HW1 1361   0.520   2.918   1.464  0.6923 -0.4726 -1.7825
  454SOL    HW2 1362   0.423   2.775   1.483  0.2713 -2.6669  0.4300
  455SOL     OW 1363   2.296   2.159   2.870 -1.0219  0.0244  0.1055
  455SOL    HW1 1364   2.302   2.111   2.960 -0.9048 -3.1836 -0.3093
  455SOL    HW2 1365   2.283   2.257   2.893  0.8787 -1.1699  1.4333
  456SOL     OW 1366   0.322   3.093   1.679  0.7697  0.1359  0.5660
  456SOL    HW1 1367   0.267   3.124   1.595 -4.8049  1.1183 -0.2522
  456SOL    HW2 1368   0.399   3.033   1.647  1.6310 -2.2772  1.3494
  457SOL     OW 1369   1.386   2.198   0.265 -0.7968 -0.2959  0.3958
  457SOL    HW1 1370   1.475   2.151   0.259  0.1315 -0.4374 -0.1396
  457SOL    HW2 1371   1.326   2.171   0.185 -3.0922  0.3304  2.1818
  458SOL     OW 1372   0.360   1.761   0.620 -0.2394  0.0367 -0.2946
  458SOL    HW1 1373   0.346   1.783   0.719 -0.0286 -1.0406  2.0621
  458SOL    HW2 1374   0.272   1.756   0.572  0.5658 -0.8833 -0.6782
  459SOL     OW 1375   0.319   0.827   0.643 -0.0811 -0.0377 -0.6418
  459SOL    HW1 1376   0.352   0.920   0.667 -0.3864  1.8127 -2.3016
  459SOL    HW2 1377   0.395   0.767   0.622  2.3505  3.5756 -1.6897
  460SOL     OW 1378   1.652   2.444   1.406 -0.4185 -0.0755  0.2903
  460SOL    HW1 1379   1.693   2.355   1.371 -0.7986 -0.7789  1.7511
  460SOL    HW2 1380   1.556   2.429   1.433  2.8149 -0.6799  0.4619
  461SOL     OW 1381   0.237   2.638   0.981  0.1587 -0.3024  0.2048
  461SOL    HW1 1382   0.140   2.653   1.010 -0.9155  0.2526 -1.5697
  461SOL    HW2 1383   0.241   2.546   0.933  3.1621  1.6119 -2.5665
  462SOL     OW 1384   0.228   0.842   1.055  0.4368  0.2072  0.3285
  462SOL    HW1 1385   0.310   0.880   1.008  0.5840 -1.6738 -0.0720
  462SOL    HW2 1386   0.210   0.894   1.140  1.1089  2.1108 -0.7919
  463SOL     OW 1387   1.085   2.707  -0.001  0.1688 -0.2433 -0.0616
  463SOL    HW1 1388   1.016   2.783  -0.023  0.1379  0.5741 -0.9345
  463SOL    HW2 1389   1.084   2.687   0.102  0.2102  1.3886  1.6224
  464SOL     OW 1390   2.608   2.445   1.108 -0.4518  0.0582 -0.0170
  464SOL    HW1 1391   2.592   2.548   1.091 -1.6449  0.9432 -1.2445
  464SOL    HW2 1392   2.701   2.430   1.135 -1.6724 -2.8888 -0.3795
  465SOL     OW 1393   2.998   2.945   0.784 -0.0603  0.1323 -0.2756
  465SOL    HW1 1394   2.900   2.976   0.772 -3.2058 -1.4033 -1.0061
  465SOL    HW2 1395   3.065   2.958   0.706 -0.8359 -2.5633  2.1516
  466SOL     OW 1396   2.362   2.121   0.481 -0.7473 -0.1562 -0.7357
  466SOL    HW1 1397   2.410   2.132   0.575  1.5434 -0.4880  2.7135
  466SOL    HW2 1398   2.433   2.132   0.406 -1.4024 -1.6388  2.2380
  467SOL     OW 1399   0.750   2.516   1.357 -0.1098  0.6653 -0.3364
  467SOL    HW1 1400   0.774   2.603   1.402  2.0150 -0.2777 -0.6964
  467SOL    HW2 1401   0.653   2.495   1.364 -0.8032  0.8678 -0.0221
  468SOL     OW 1402   2.523   0.135   1.288  0.2622 -0.2964  0.4544
  468SOL    HW1 1403   2.453   0.187   1.337  1.2073  0.7572 -0.8844
  468SOL    HW2 1404   2.611   0.170   1.322 -4.1097 -0.1463 -1.0786
  469SOL     OW 1405   1.179   1.979   2.531  0.4224  0.5799  0.5573
  469SOL    HW1 1406   1.241   1.908   2.500 -1.0612  2.6612 -1.8310
  469SOL    HW2 1407   1.103   1.940   2.577  2.5783  0.8177  0.3200
  470SOL     OW 1408   0.808   2.095   2.845  0.3824 -0.1052 -0.1081
  470SOL    HW1 1409   0.855   2.088   2.753  1.9423  3.1506 -0.2485
  470SOL    HW2 1410   0.764   2.187   2.856  3.3226  2.1813 -1.1068
  471SOL     OW 1411   1.799   2.203   1.871 -0.1476 -0.1971  0.5359
  471SOL    HW1 1412   1.722   2.271   1.858 -0.2049  0.7435 -2.1879
  471SOL    HW2 1413   1.758   2.112   1.862  0.8523  2.3917  4.3427
  472SOL     OW 1414   0.177   1.920   1.284 -0.0401 -0.1604  0.2137
  472SOL    HW1 1415   0.106   1.855   1.249  0.3531 -0.3965  1.1063
  472SOL    HW2 1416   0.267   1.889   1.255  0.4016 -2.3897 -0.5915
  473SOL     OW 1417   0.229   2.543   2.175  0.3438  0.0191 -0.0088
  473SOL    HW1 1418   0.211   2.626   2.122 -1.2141 -1.3129  1.5710
  473SOL    HW2 1419   0.284   2.476   2.123 -0.9473  2.9748  1.2035
  474SOL     OW 1420   1.155   1.940   1.746  0.1965  0.8119  0.2141
  474SOL    HW1 1421   1.083   2.010   1.727  2.5440 -1.5573  1.3410
  474SOL    HW2 1422   1.106   1.848   1.740 -2.7721 -1.9278 -0.5058
  475SOL     OW 1423   2.163   2.656   1.812  0.0629 -0.1070  0.2664
  475SOL    HW1 1424   2.097   2.624   1.883  1.3583  2.5935  0.4636
  475SOL    HW2 1425   2.157   2.758   1.794  0.5134  1.0358 -1.4314
  476SOL     OW 1426   1.454   0.192   0.195 -0.2961 -0.2224  0.5123
  476SOL    HW1 1427   1.368   0.200   0.255 -0.3613  1.9213  1.6672
  476SOL    HW2 1428   1.446   0.112   0.129 -0.0622 -1.7166 -0.9033
  477SOL     OW 1429   1.411   1.749   2.941  0.1965 -0.0023  0.1725
  477SOL    HW1 1430   1.415   1.660   2.988 -1.0530  2.5297 -1.8696
  477SOL    HW2 1431   1.314   1.771   2.910 -3.0383 -0.2710 -1.6663
  478SOL     OW 1432   0.808   0.832   2.876  0.2137 -0.2803 -0.1548
  478SOL    HW1 1433   0.829   0.918   2.921 -0.1459 -0.2329  2.2347
  478SOL    HW2 1434   0.889   0.801   2.818  2.3984 -0.6127  0.1139
  479SOL     OW 1435   0.405   2.353   2.060  0.5987  0.0329 -0.1909
  479SOL    HW1 1436   0.504   2.338   2.071 -2.1091  1.1230  0.4976
  479SOL    HW2 1437   0.356   2.290   2.122  3.5795 -2.1133  1.6396
  480SOL     OW 1438   0.989   0.428   1.353 -0.6357  1.0818 -0.5034
  480SOL    HW1 1439   1.060   0.500   1.376  2.3794  1.5288  0.0291
  480SOL    HW2 1440   1.020   0.371   1.271  0.9693 -0.4109  0.6699
  481SOL     OW 1441   3.077   1.784   1.131  0.2161 -1.1747 -0.5520
  481SOL    HW1 1442   3.062   1.880   1.095 -0.9152  0.3540  0.2640
  481SOL    HW2 1443   2.987   1.749   1.168 -3.1225 -0.4865  0.2189
  482SOL     OW 1444   1.754   2.464   0.054 -0.3993  0.1972  0.2134
  482SOL    HW1 1445   1.748   2.469   0.154 -1.6601 -0.8210 -1.5442
  482SOL    HW2 1446   1.798   2.547   0.012  1.3223  1.4264 -1.1281
  483SOL     OW 1447   2.423   0.403   0.330  0.1551  0.3112 -0.3163
  483SOL    HW1 1448   2.396   0.495   0.367  0.8086  0.7228 -1.2043
  483SOL    HW2 1449   2.525   0.397   0.334 -0.2945  1.7478 -0.8414
  484SOL     OW 1450   1.409   0.842   1.868 -0.3554  0.8298  0.3509
  484SOL    HW1 1451   1.379   0.892   1.786 -0.4503 -0.6034 -1.4733
  484SOL    HW2 1452   1.430   0.915   1.939 -0.6459 -0.9510  2.7797
  485SOL     OW 1453   2.530   2.636   0.198  0.3562  0.2225  0.0170
  485SOL    HW1 1454   2.449   2.693   0.180  3.6342  0.2258 -0.1016
  485SOL    HW2 1455   2.513   2.555   0.254  1.8281  2.8662 -2.6295
  486SOL     OW 1456   0.675   1.967   2.005  0.9274 -0.2769 -0.0015
  486SOL    HW1 1457   0.695   2.009   1.915 -3.1580 -1.9755  0.7174
  486SOL    HW2 1458   0.763   1.949   2.053 -1.9694 -2.1187 -1.6769
  487SOL     OW 1459   1.837   2.125   1.017 -0.2522 -0.3210  0.5079
  487SOL    HW1 1460   1.884   2.208   0.982 -2.2311  1.6739 -0.9716
  487SOL    HW2 1461   1.812   2.065   0.939  0.1538  0.3699  0.1371
  488SOL     OW 1462   1.151   1.751   1.429  0.3479  0.4755  0.2340
  488SOL    HW1 1463   1.065   1.753   1.487  1.4032 -2.3146 -0.8782
  488SOL    HW2 1464   1.169   1.655   1.401 -2.4923  1.1664 -1.0050
  489SOL     OW 1465   0.498   2.681   0.574 -0.5560 -0.6970 -0.0813
  489SOL    HW1 1466   0.553   2.733   0.642 -3.0624  1.5792  0.3401
  489SOL    HW2 1467   0.547   2.680   0.483 -1.6020  1.7155 -0.5637
  490SOL     OW 1468   1.207   0.840   3.027  0.5857 -0.2005  0.5922
  490SOL    HW1 1469   1.169   0.747   3.046 -0.3747  1.2019 -1.4161
  490SOL    HW2 1470   1.205   0.871   2.929 -0.2967  1.4015 -1.2381
  491SOL     OW 1471   1.681   1.320   0.913  0.4050 -0.3944  0.4179
  491SOL    HW1 1472   1.691   1.218   0.892  0.0519 -1.3278 -0.2157
  491SOL    HW2 1473   1.578   1.343   0.915 -0.7054  1.6465  0.6402
  492SOL     OW 1474   2.133   1.557   2.864 -0.1195 -0.2527  0.3613
  492SOL    HW1 1475   2.116   1.598   2.955 -0.7030  0.8340  0.5879
  492SOL    HW2 1476   2.153   1.632   2.798  2.2169  0.7073  0.2731
  493SOL     OW 1477   2.537   0.307   2.929  0.5285 -0.2514 -0.3479
  493SOL    HW1 1478   2.444   0.280   2.902  2.3734  0.9999  0.6449
  493SOL    HW2 1479   2.542   0.369   3.003  1.1844 -2.5945 -1.4818
  494SOL     OW 1480   1.182   1.111   1.831 -0.3877  0.3841  0.2501
  494SOL    HW1 1481   1.182   1.108   1.931  0.2950 -0.8427  0.2593
  494SOL    HW2 1482   1.098   1.063   1.794 -2.0711  0.8642 -1.8225
  495SOL     OW 1483   0.123   1.542   1.961 -0.1000 -0.1646  0.1319
  495SOL    HW1 1484   0.023   1.554   1.942  0.7696  1.1850  1.0781
  495SOL    HW2 1485   0.157   1.612   2.025  0.1040 -0.6923  0.9440
  496SOL     OW 1486   2.140   1.963   1.758  0.4413 -0.1141  0.1533
  496SOL    HW1 1487   2.204   1.917   1.695 -3.3371 -0.3219 -0.3868
  496SOL    HW2 1488   2.071   2.010   1.706  1.4132  0.9947  2.3199
  497SOL     OW 1489   0.831   1.993   2.571 -0.2605  0.0716  0.2443
  497SOL    HW1 1490   0.896   2.063   2.533 -1.0772 -1.3413 -1.3228
  497SOL    HW2 1491   0.773   1.941   2.502 -0.5721 -0.8070 -1.6550
  498SOL     OW 1492   1.526   2.479   2.155  0.3658 -0.0117  0.3762
  498SOL    HW1 1493   1.602   2.507   2.215  0.8177  1.7352  0.2690
  498SOL    HW2 1494   1.456   2.548   2.139  1.8448 -0.7545  0.2301
  499SOL     OW 1495   0.664   0.540   0.131 -0.3199 -0.1491  0.1101
  499SOL    HW1 1496   0.698   0.451   0.157 -0.0033  2.1292  1.0795
  499SOL    HW2 1497   0.697   0.565   0.037 -0.0090 -0.5766  0.7976
  500SOL     OW 1498   0.638   2.674   2.435 -0.0707  0.1360 -0.0981
  500SOL    HW1 1499   0.599   2.766   2.446  0.6342 -3.2686  0.3223
  500SOL    HW2 1500   0.736   2.676   2.463  0.0004 -0.9776  1.3610
  501SOL     OW 1501   1.293   2.245   1.745 -0.3082  0.8973 -0.4376
  501SOL    HW1 1502   1.307   2.175   1.820 -0.9903 -0.4915  0.2302
  501SOL    HW2 1503   1.291   2.201   1.653  3.0723  0.0764 -1.8783
  502SOL     OW 1504   0.140   0.031   2.234 -0.1944 -0.1640 -0.1784
  502SOL    HW1 1505   0.107   0.095   2.308  0.5232  1.5821 -0.9611
  502SOL    HW2 1506   0.160   0.087   2.156  0.6253  0.4936  1.7578
  503SOL     OW 1507   1.169   2.557   2.083 -0.3311 -0.6078 -0.3405
  503SOL    HW1 1508   1.259   2.604   2.067 -0.7910  0.8604  2.1616
  503SOL    HW2 1509   1.109   2.614   2.139  3.2868  0.7430  1.1838
  504SOL     OW 1510   0.471   3.058   2.870  0.0442 -0.2866 -0.0567
  504SOL    HW1 1511   0.546   3.126   2.887  1.7605  0.2713 -0.8744
  504SOL    HW2 1512   0.421   3.044   2.961 -0.5617 -0.9410  3.1332
  505SOL     OW 1513   1.586   2.895   2.522  0.3302  0.1393 -0.0535
  505SOL    HW1 1514   1.513   2.830   2.493  0.6853 -0.8461 -2.1805
  505SOL    HW2 1515   1.606   2.964   2.448 -2.0726 -0.6132 -2.3035
  506SOL     OW 1516   1.225   0.287   2.049  0.0455 -0.0379  0.2231
  506SOL    HW1 1517   1.169   0.357   2.001  1.6332 -1.5387 -0.7183
  506SOL    HW2 1518   1.176   0.197   2.053  2.0565 -0.6102 -1.7307
  507SOL     OW 1519   0.043   1.038   0.082  0.0009  0.7812  0.5287
  507SOL    HW1 1520   0.143   1.009   0.076  1.5259 -1.6054  1.9481
  507SOL    HW2 1521   0.021   1.053   0.180 -3.0539 -1.1901 -1.1232
  508SOL     OW 1522   0.980   1.369   1.889 -0.4155 -0.6555 -0.3211
  508SOL    HW1 1523   0.987   1.286   1.832 -0.3134 -1.5034  2.4666
  508SOL    HW2 1524   0.893   1.373   1.937  2.0802  1.3462 -3.3768
  509SOL     OW 1525   0.526   2.042   2.206  0.1629 -0.1062  0.0220
  509SOL    HW1 1526   0.586   2.040   2.127 -3.6378 -0.7723  3.3653
  509SOL    HW2 1527   0.430   2.072   2.179  0.9512  1.4815 -2.4612
  510SOL     OW 1528   1.828   2.983   1.855  0.2215  0.3154  0.1684
  510SOL    HW1 1529   1.833   2.889   1.895  0.2727 -2.3454 -2.3354
  510SOL    HW2 1530   1.883   2.985   1.768 -2.2450 -0.4247 -1.5512
  511SOL     OW 1531   1.357   2.814   3.042  0.1039 -0.0721  0.1781
  511SOL    HW1 1532   1.264   2.776   3.065  1.7563 -0.3035 -0.1552
  511SOL    HW2 1533   1.412   2.729   3.022  0.8089 -0.5985  0.9992
  512SOL     OW 1534   0.760   1.367   2.044  0.1805 -0.2681 -0.2084
  512SOL    HW1 1535   0.740   1.333   2.139  1.1035  1.9745  2.3073
  512SOL    HW2 1536   0.686   1.346   1.980  1.5449  3.3026  2.8562
  513SOL     OW 1537   1.451   1.842   2.141 -0.5257  0.4319 -0.0085
  513SOL    HW1 1538   1.518   1.917   2.154 -1.9920 -0.3604 -1.2875
  513SOL    HW2 1539   1.486   1.750   2.117 -0.7110 -0.2012  3.2450
  514SOL     OW 1540   0.602   1.271   0.086  0.4403 -0.1136 -0.1889
  514SOL    HW1 1541   0.616   1.276  -0.014 -0.3430  1.1017 -0.8427
  514SOL    HW2 1542   0.617   1.355   0.137  1.9265 -0.2332 -2.5800
  515SOL     OW 1543   0.646   1.844   2.387 -0.8168 -0.8070  0.0473
  515SOL    HW1 1544   0.587   1.922   2.353  1.2960  0.8177 -0.2265
  515SOL    HW2 1545   0.671   1.787   2.307 -0.5709  0.0986 -0.6940
  516SOL     OW 1546   0.570   2.960   2.413  0.5399 -0.3452 -0.0093
  516SOL    HW1 1547   0.594   3.032   2.486  0.3524 -0.5818 -0.2085
  516SOL    HW2 1548   0.471   2.976   2.380 -1.6872  3.6697  1.1737
  517SOL     OW 1549   1.793   2.195   2.841 -0.1163  0.2304 -0.5003
  517SOL    HW1 1550   1.767   2.209   2.934  0.0217  0.4230 -0.4071
  517SOL    HW2 1551   1.765   2.098   2.817 -0.4029  3.4421 -1.5136
  518SOL     OW 1552   1.156   1.838   2.857 -0.2813 -0.2052  0.4209
  518SOL    HW1 1553   1.088   1.806   2.927 -0.0316  0.8440  0.1852
  518SOL    HW2 1554   1.163   1.938   2.841 -2.1136 -1.3465  0.3432
  519SOL     OW 1555   0.897   2.106   0.199  0.1750 -0.5207 -0.2891
  519SOL    HW1 1556   0.848   2.194   0.189 -0.3085 -1.4121  0.2707
  519SOL    HW2 1557   0.838   2.030   0.232 -1.1846  0.6668  0.0718
  520SOL     OW 1558   0.991   2.016   3.038 -0.2837  0.4884  0.8965
  520SOL    HW1 1559   0.939   2.031   2.951 -1.2668 -0.8043 -2.4683
  520SOL    HW2 1560   0.948   2.073   3.111  0.9662 -1.1445  1.5589
  521SOL     OW 1561   0.895   2.908   3.052 -0.3122 -0.0429  0.0934
  521SOL    HW1 1562   0.851   2.931   3.140 -0.9650 -0.2201  0.4530
  521SOL    HW2 1563   0.900   2.993   2.995  0.5960  2.9149 -1.9734
  522SOL     OW 1564   0.311   1.538   0.954 -0.4226  0.1225  0.6172
  522SOL    HW1 1565   0.290   1.469   0.878  1.4174 -0.7139 -0.6438
  522SOL    HW2 1566   0.253   1.517   1.034  0.4570 -1.5905 -0.7236
  523SOL     OW 1567   1.216   1.602   2.682 -0.1383  0.5436 -0.0208
  523SOL    HW1 1568   1.180   1.691   2.717 -1.8879  1.8904  1.1036
  523SOL    HW2 1569   1.321   1.602   2.684  0.3910  1.6767 -0.3893
  524SOL     OW 1570   1.184   1.787   0.480 -0.5021 -0.5601 -0.6275
  524SOL    HW1 1571   1.198   1.808   0.383 -0.4004  2.7474  0.1525
  524SOL    HW2 1572   1.109   1.846   0.518 -0.9324  1.4268  0.2549
  525SOL     OW 1573   0.439   0.942   1.750 -0.0319  0.5931 -0.0085
  525SOL    HW1 1574   0.471   0.852   1.791 -1.8501  0.1231  0.9731
  525SOL    HW2 1575   0.335   0.952   1.753 -0.3173 -0.7022 -0.6419
  526SOL     OW 1576   2.753   1.670   1.492 -0.4115 -0.2881 -0.2027
  526SOL    HW1 1577   2.661   1.639   1.512 -1.3941  0.0845  0.9787
  526SOL    HW2 1578   2.812   1.657   1.569 -4.4262  1.0089 -0.3820
  527SOL     OW 1579   2.158   2.313   0.384 -0.0365  0.0751 -0.1485
  527SOL    HW1 1580   2.095   2.278   0.311 -0.6100 -0.9098 -0.0813
  527SOL    HW2 1581   2.241   2.257   0.407 -0.0394  1.1199 -1.1515
  528SOL     OW 1582   0.878   0.255   1.562 -0.3420 -0.1543 -0.4836
  528SOL    HW1 1583   0.921   0.315   1.489 -2.1292  0.2300 -1.8320
  528SOL    HW2 1584   0.862   0.160   1.531 -0.2830  1.9613  0.0024
  529SOL     OW 1585   1.145   2.495   1.663 -0.2665  0.5541  0.4961
  529SOL    HW1 1586   1.178   2.405   1.695  0.9932 -0.2653 -0.5226
  529SOL    HW2 1587   1.133   2.506   1.567 -0.5051 -0.1819  0.3102
  530SOL     OW 1588   0.200   1.755   2.112 -0.1901  0.3438  0.1463
  530SOL    HW1 1589   0.227   1.772   2.207  0.6621  3.6229  2.7805
  530SOL    HW2 1590   0.257   1.823   2.059  3.4048 -2.2515  0.4306
  531SOL     OW 1591   1.583   1.624   2.040  0.3417  0.2604 -0.1378
  531SOL    HW1 1592   1.598   1.529   2.074  0.8223 -3.1011 -0.7016
  531SOL    HW2 1593   1.550   1.616   1.943 -2.2463  4.6983 -4.8427
  532SOL     OW 1594   0.801   2.918   2.264 -0.4284 -0.0067  0.0006
  532SOL    HW1 1595   0.724   2.914   2.329  1.1044 -0.4051  2.1653
  532SOL    HW2 1596   0.790   2.857   2.180  0.2063 -0.0555 -1.2509
  533SOL     OW 1597   1.319   2.186   2.409 -0.1614 -0.0874 -0.4001
  533SOL    HW1 1598   1.292   2.272   2.452 -2.2438 -1.6570 -0.6695
  533SOL    HW2 1599   1.249   2.122   2.433 -0.0398  0.7197  2.9386
  534SOL     OW 1600   1.161   2.424   2.562 -0.1473  0.2822 -0.2589
  534SOL    HW1 1601   1.195   2.421   2.656  0.2092  2.6158  0.6513
  534SOL    HW2 1602   1.177   2.515   2.523 -1.1170 -1.3586  0.4904
  535SOL     OW 1603   1.087   2.248   1.193 -0.6575 -0.2847  0.6391
  535SOL    HW1 1604   1.142   2.258   1.109  1.5474  1.4477  0.5701
  535SOL    HW2 1605   1.072   2.152   1.222 -0.5959 -0.7385  0.9125
  536SOL     OW 1606   0.981   1.665   1.859 -0.2806  0.2605 -0.1435
  536SOL    HW1 1607   1.051   1.662   1.934 -0.8773  0.7742 -2.8304
  536SOL    HW2 1608   0.954   1.572   1.835  2.8540  0.3452  0.0141
  537SOL     OW 1609   1.214   1.212   2.766 -0.7103 -0.0959  0.3066
  537SOL    HW1 1610   1.300   1.260   2.800  1.2013 -0.2959  0.0264
  537SOL    HW2 1611   1.232   1.191   2.666  1.1991 -0.0353 -0.1278
  538SOL     OW 1612   2.013   2.476   2.831 -0.1269 -0.2456 -0.4429
  538SOL    HW1 1613   1.926   2.454   2.785 -0.7386 -0.5446  1.8666
  538SOL    HW2 1614   2.004   2.559   2.883 -0.4853 -1.6047 -0.8424
  539SOL     OW 1615   0.823   2.154   2.242 -0.4387  0.0105 -0.5829
  539SOL    HW1 1616   0.872   2.168   2.331  1.2244  0.6827 -0.6344
  539SOL    HW2 1617   0.863   2.066   2.206  2.6541 -1.8709 -0.4669
  540SOL     OW 1618   0.334   1.067   2.537 -0.1395  0.2990  0.4370
  540SOL    HW1 1619   0.373   1.151   2.499 -0.7481  0.1315  0.0313
  540SOL    HW2 1620   0.234   1.057   2.508 -2.6725 -1.9061  1.5654
  541SOL     OW 1621   2.381   0.730   2.303  0.1043 -0.4278  0.5268
  541SOL    HW1 1622   2.434   0.697   2.383  0.4896  1.7088  2.4371
  541SOL    HW2 1623   2.435   0.717   2.219 -0.4257 -0.0399  2.5074
  542SOL     OW 1624   0.771   1.639   1.190 -0.8562  0.2202 -0.5380
  542SOL    HW1 1625   0.844   1.692   1.140  1.4060  1.6615 -2.3861
  542SOL    HW2 1626   0.705   1.604   1.119  1.0893  0.1777 -0.0562
  543SOL     OW 1627   1.772   2.420   2.699  0.0227 -0.3651  0.0234
  543SOL    HW1 1628   1.770   2.431   2.598  0.4698 -3.2835 -0.0699
  543SOL    HW2 1629   1.771   2.323   2.713  0.6000 -0.6642 -0.1373
  544SOL     OW 1630   0.842   2.728   2.605  0.0592 -0.2435 -0.7121
  544SOL    HW1 1631   0.785   2.806   2.629  0.2206 -2.8106  1.2977
  544SOL    HW2 1632   0.817   2.646   2.663 -0.3353  1.2696  1.2145
  545SOL     OW 1633   0.887   2.009   1.518 -0.1075  0.1785 -0.5470
  545SOL    HW1 1634   0.929   2.076   1.587 -0.5758  2.0427  1.2675
  545SOL    HW2 1635   0.861   1.921   1.564  0.2453 -3.7487  1.2130
  546SOL     OW 1636   2.747   0.019   2.264 -0.2224 -0.3866  0.4246
  546SOL    HW1 1637   2.659  -0.016   2.302 -1.2503 -2.8233 -0.4546
  546SOL    HW2 1638   2.784   0.092   2.324 -0.1010  0.2719 -2.9665
  547SOL     OW 1639   0.419   0.464   2.577  0.1448  0.2939 -0.1702
  547SOL    HW1 1640   0.454   0.464   2.478 -1.5721  1.5350 -0.9755
  547SOL    HW2 1641   0.369   0.551   2.597 -2.3098 -1.0701  0.2893
  548SOL     OW 1642   1.175   2.963   2.902 -0.2012 -0.4965 -0.0183
  548SOL    HW1 1643   1.251   2.907   2.940  1.3850 -2.4906 -1.6935
  548SOL    HW2 1644   1.130   2.917   2.823 -2.0418 -0.7210 -0.5028
  549SOL     OW 1645   0.897   1.920   2.154  0.4705 -0.3311 -0.1458
  549SOL    HW1 1646   0.855   1.831   2.176  0.7786 -0.5769 -1.6176
  549SOL    HW2 1647   0.998   1.918   2.144 -0.5573  0.1920  0.6854
  550SOL     OW 1648   1.547   2.375   1.899 -0.1202 -0.2549  0.9012
  550SOL    HW1 1649   1.541   2.416   1.994  0.2269  0.7431  0.4700
  550SOL    HW2 1650   1.454   2.344   1.878  0.4155 -0.9676  2.4379
  551SOL     OW 1651   1.076   0.043   2.000 -0.2726 -0.0417 -0.1539
  551SOL    HW1 1652   1.040   0.089   1.917 -0.3167 -1.1242  0.6943
  551SOL    HW2 1653   1.093  -0.061   1.984 -0.6899 -0.8800 -2.5803
  552SOL     OW 1654   0.812   0.006   0.804 -0.1191 -0.1619  0.2511
  552SOL    HW1 1655   0.800  -0.022   0.705 -0.1048 -0.0520 -0.9438
  552SOL    HW2 1656   0.850  -0.065   0.860 -0.3729  2.1074 -0.5984
  553SOL     OW 1657   1.701   0.196   0.075  0.1369 -0.1184 -0.7926
  553SOL    HW1 1658   1.619   0.196   0.140  0.1798 -1.6297 -0.7587
  553SOL    HW2 1659   1.715   0.098   0.053  0.3635  0.7054 -1.3182
  554SOL     OW 1660   1.050   1.192   1.404 -0.8404  0.2664  0.2859
  554SOL    HW1 1661   0.977   1.142   1.456  2.3388  3.4772  0.5432
  554SOL    HW2 1662   1.127   1.125   1.390  0.1520 -0.6639  0.5410
  555SOL     OW 1663   0.773   0.006   0.171 -0.1507 -0.1556 -0.1382
  555SOL    HW1 1664   0.762   0.105   0.149 -0.5144 -0.1772 -0.0506
  555SOL    HW2 1665   0.681  -0.042   0.182 -3.6532 -0.8640  1.7586
  556SOL     OW 1666   0.655   2.883   2.765  0.5526 -0.2411 -0.3320
  556SOL    HW1 1667   0.615   2.790   2.761  2.3926  3.0671  1.5577
  556SOL    HW2 1668   0.588   2.955   2.791 -2.9982 -0.8310 -1.4193
  557SOL     OW 1669   1.195   0.527   2.844  0.0783 -0.2031  0.5796
  557SOL    HW1 1670   1.211   0.571   2.752  0.1080  1.8350  0.3177
  557SOL    HW2 1671   1.245   0.567   2.927  2.0492  0.5043 -0.5917
  558SOL     OW 1672   0.580   0.298   2.724 -0.5423 -0.2414 -0.1059
  558SOL    HW1 1673   0.675   0.323   2.701 -0.8288  0.2563  0.0572
  558SOL    HW2 1674   0.513   0.362   2.683  3.9439 -0.9484  1.6298
  559SOL     OW 1675   0.921   2.253   2.488 -0.0085  0.0223 -0.1641
  559SOL    HW1 1676   0.830   2.295   2.474  1.9781 -1.3510  0.1998
  559SOL    HW2 1677   0.990   2.318   2.532 -0.1711  1.9372 -1.0140
  560SOL     OW 1678   1.061   2.211   0.793 -0.3220 -0.5474  0.4391
  560SOL    HW1 1679   0.975   2.231   0.845 -2.3055  0.9729  1.2818
  560SOL    HW2 1680   1.070   2.276   0.716  0.4195  0.3086  0.6786
  561SOL     OW 1681   3.012   2.706   2.348  0.1475  0.0817 -0.2464
  561SOL    HW1 1682   2.971   2.772   2.284  0.7361  0.9674  1.8433
  561SOL    HW2 1683   2.956   2.702   2.431 -0.9019 -0.6306 -0.6357
  562SOL     OW 1684   0.675   2.309   2.075 -0.0252 -0.3988 -0.1697
  562SOL    HW1 1685   0.695   2.408   2.106  3.6393  0.6382  1.1002
  562SOL    HW2 1686   0.710   2.246   2.144 -0.3397  0.6095  1.2229
  563SOL     OW 1687   2.607   2.432   2.468 -0.0339  0.7883  0.7171
  563SOL    HW1 1688   2.503   2.434   2.480  0.0224 -0.3410  1.9008
  563SOL    HW2 1689   2.628   2.363   2.393  0.0083 -0.1986 -2.1743
  564SOL     OW 1690   2.268   2.419   2.889 -0.2386 -0.3874 -0.1592
  564SOL    HW1 1691   2.195   2.420   2.819  1.0434 -2.1312 -2.5921
  564SOL    HW2 1692   2.223   2.433   2.981 -2.1279 -0.6569 -2.2421
  565SOL     OW 1693   2.898   2.631   2.987  0.1155  0.0511  0.5434
  565SOL    HW1 1694   2.986   2.659   2.947  1.5688 -2.3304 -1.4360
  565SOL    HW2 1695   2.900   2.528   3.002  0.0471 -1.7206 -1.0701
  566SOL     OW 1696   1.828   1.681   1.235  0.2601  0.3316  0.0099
  566SOL    HW1 1697   1.867   1.710   1.326 -1.9944  0.9659  1.9665
  566SOL    HW2 1698   1.779   1.754   1.184  2.2841  1.7226 -3.5056
  567SOL     OW 1699   1.310   2.347   2.806  0.0382 -0.2167  0.3065
  567SOL    HW1 1700   1.328   2.348   2.905  0.5335 -1.0590 -3.5765
  567SOL    HW2 1701   1.399   2.357   2.754  0.6210 -0.6241  1.8352
  568SOL     OW 1702   1.952   0.076   0.722  0.4886 -0.2310  0.1510
  568SOL    HW1 1703   1.987   0.031   0.637 -3.5216 -0.1078 -3.8869
  568SOL    HW2 1704   1.909   0.002   0.781 -0.5576 -1.9372 -0.6133
  569SOL     OW 1705   0.270   2.291   3.037  0.1289  0.7544  0.0941
  569SOL    HW1 1706   0.233   2.208   2.996  1.1087  2.2970  1.4821
  569SOL    HW2 1707   0.364   2.286   3.074 -0.9270 -0.4834  0.6070
  570SOL     OW 1708   1.193   0.770   0.653  0.4860 -0.4012 -0.2117
  570SOL    HW1 1709   1.279   0.812   0.630 -0.8860  1.4121 -1.7008
  570SOL    HW2 1710   1.119   0.815   0.602  1.7152 -1.6836  0.7026
  571SOL     OW 1711   1.362   2.785   1.243 -0.2001 -0.1026  0.0873
  571SOL    HW1 1712   1.342   2.849   1.166  2.1090  2.5703  0.2174
  571SOL    HW2 1713   1.326   2.817   1.326  1.3889 -0.7318 -2.1030
  572SOL     OW 1714   0.823   2.375   0.627 -0.3951 -0.0568  0.2135
  572SOL    HW1 1715   0.823   2.474   0.612  0.1067 -1.3871  3.3331
  572SOL    HW2 1716   0.744   2.330   0.581  2.6399  1.5358  1.2068
  573SOL     OW 1717   0.998   0.950   2.091 -0.0398 -0.2529  0.0216
  573SOL    HW1 1718   1.068   1.024   2.106 -0.1280 -0.6546  0.9451
  573SOL    HW2 1719   0.908   0.993   2.064 -2.1602 -0.1471 -1.6502
  574SOL     OW 1720   1.544   1.601   0.705 -0.4216  0.5856 -0.4327
  574SOL    HW1 1721   1.597   1.650   0.781  2.0853 -1.0730  0.2595
  574SOL    HW2 1722   1.498   1.673   0.649 -0.2863  0.0023  0.6428
  575SOL     OW 1723   2.955   1.565   1.949 -0.3473 -0.6627 -0.4690
  575SOL    HW1 1724   2.902   1.521   1.872 -0.1860 -1.8582 -2.7149
  575SOL    HW2 1725   2.907   1.539   2.032  1.9337 -0.6650 -0.8586
  576SOL     OW 1726   2.852   1.209   2.023 -0.2870  0.4922  0.0486
  576SOL    HW1 1727   2.778   1.222   1.956  2.6972  0.5918 -0.5743
  576SOL    HW2 1728   2.841   1.286   2.089  0.0718  0.2565 -0.8440
  577SOL     OW 1729   1.460   2.139   2.975  0.1735 -0.1530  0.1803
  577SOL    HW1 1730   1.555   2.155   3.009  0.1928 -0.9084  1.4655
  577SOL    HW2 1731   1.469   2.101   2.880  2.7230 -2.0275 -3.3123
  578SOL     OW 1732   1.702   2.208   3.093  0.8058 -0.5021  0.2681
  578SOL    HW1 1733   1.732   2.306   3.098  2.3392  0.9090  0.1490
  578SOL    HW2 1734   1.670   2.175   3.183 -0.8707 -2.2478 -0.2820
  579SOL     OW 1735   1.729   2.477   0.329 -0.3798 -0.1875  0.4180
  579SOL    HW1 1736   1.650   2.443   0.377  1.4207 -1.4509 -2.1012
  579SOL    HW2 1737   1.799   2.521   0.386 -1.1659  2.9429 -1.2290
  580SOL     OW 1738   0.846   2.555   3.019  0.7412  0.3716 -0.1908
  580SOL    HW1 1739   0.884   2.648   3.029 -2.8278 -1.1294  1.1082
  580SOL    HW2 1740   0.830   2.524   2.925  0.5518  1.2571  1.6610
  581SOL     OW 1741   1.192   2.857   1.466 -1.0718  0.2827 -0.1180
  581SOL    HW1 1742   1.134   2.942   1.458  0.0597  2.9118  0.2267
  581SOL    HW2 1743   1.226   2.838   1.556 -1.9315 -1.5872 -0.0975
  582SOL     OW 1744   2.621   0.679   1.762 -0.1062  0.2296  0.2366
  582SOL    HW1 1745   2.711   0.721   1.781  1.1349  0.0446  0.7626
  582SOL    HW2 1746   2.614   0.577   1.791  1.3828 -0.3915  2.9562
  583SOL     OW 1747   3.056   1.068   2.617 -0.3107  0.0609 -0.0090
  583SOL    HW1 1748   3.066   1.014   2.703 -1.8456  2.8087 -1.1173
  583SOL    HW2 1749   3.095   1.011   2.544 -1.6366  1.1149  0.4026
  584SOL     OW 1750   0.485   2.646   2.823  0.2445  0.0437  0.2425
  584SOL    HW1 1751   0.496   2.549   2.854  0.2592 -0.9745  1.5661
  584SOL    HW2 1752   0.446   2.705   2.895 -0.7448  0.8595  0.9397
  585SOL     OW 1753   1.504   2.291   0.890 -0.4420 -0.5594  0.0481
  585SOL    HW1 1754   1.557   2.380   0.899  3.0236  2.5223 -1.8798
  585SOL    HW2 1755   1.537   2.265   0.799  1.6832 -2.3982  1.1776
  586SOL     OW 1756   2.910   0.221   1.794 -0.6799 -0.2753 -0.1894
  586SOL    HW1 1757   2.812   0.234   1.760 -1.8495  2.3271 -0.5743
  586SOL    HW2 1758   2.909   0.149   1.863  2.9613 -1.4325 -2.9275
  587SOL     OW 1759   1.133   1.612   2.378 -0.2150  0.1856  0.3833
  587SOL    HW1 1760   1.222   1.644   2.408  0.0894  0.5186 -1.0270
  587SOL    HW2 1761   1.061   1.641   2.448  1.1786 -1.5041  1.7364
  588SOL     OW 1762   1.218   2.386   3.091  0.7656  0.4596  0.7570
  588SOL    HW1 1763   1.256   2.294   3.110 -0.5961 -1.6570  1.7372
  588SOL    HW2 1764   1.119   2.390   3.126 -2.2592  1.3253  0.2728
  589SOL     OW 1765   1.361   1.757   2.419  0.2393 -0.3809  0.3107
  589SOL    HW1 1766   1.415   1.785   2.338  1.2677 -0.1011  0.7513
  589SOL    HW2 1767   1.417   1.701   2.487  0.6766 -0.5157 -2.0415
  590SOL     OW 1768   0.168   0.389   2.161 -0.0451  0.1406  0.0014
  590SOL    HW1 1769   0.215   0.299   2.144  2.5398 -1.1818 -1.0996
  590SOL    HW2 1770   0.074   0.374   2.179  0.2354  1.3736  1.3110
  591SOL     OW 1771   2.470   2.996   0.918  0.7594 -0.6667  0.2458
  591SOL    HW1 1772   2.449   3.023   0.816  2.0336  0.1603 -2.0040
  591SOL    HW2 1773   2.457   3.077   0.985 -0.7012  2.5140  3.6516
  592SOL     OW 1774   1.080   2.769   2.717 -0.2722  0.2897  0.8205
  592SOL    HW1 1775   1.114   2.687   2.767  2.0860  2.3758 -2.1102
  592SOL    HW2 1776   0.989   2.745   2.682  3.9699  1.1863 -0.6934
  593SOL     OW 1777   0.024   1.059   1.367 -0.5902  0.2714 -0.2934
  593SOL    HW1 1778   0.004   1.095   1.274  0.4229 -0.1257 -1.1980
  593SOL    HW2 1779  -0.031   1.093   1.444  0.9942  1.2114  1.6027
  594SOL     OW 1780   2.978   1.130   1.601 -0.0858  0.1696 -0.1085
  594SOL    HW1 1781   3.016   1.164   1.692 -0.0020  1.2367 -0.5363
  594SOL    HW2 1782   2.880   1.166   1.591 -1.2531 -0.4959  3.1095
  595SOL     OW 1783   1.521   1.127   3.023  0.0261  0.5844 -0.3466
  595SOL    HW1 1784   1.438   1.124   3.084  0.8880  0.8218  0.1941
  595SOL    HW2 1785   1.600   1.094   3.079 -0.7148 -0.2448  3.0044
  596SOL     OW 1786   2.806   1.938   0.666  0.2212  0.4048  0.1507
  596SOL    HW1 1787   2.779   1.906   0.759 -1.1657  2.7729 -1.0669
  596SOL    HW2 1788   2.843   2.038   0.674  0.0914 -0.8448  0.7675
  597SOL     OW 1789   1.868   2.924   2.175  0.0924  0.4927  0.0161
  597SOL    HW1 1790   1.921   2.900   2.261 -2.1520 -1.7977  1.2444
  597SOL    HW2 1791   1.928   2.966   2.102 -2.7845 -0.2781  1.1811
  598SOL     OW 1792   2.847   1.017   2.994  0.3331  0.7803  0.2283
  598SOL    HW1 1793   2.856   1.116   2.971  0.9770  0.9011 -0.4290
  598SOL    HW2 1794   2.786   0.971   2.927  0.8924 -0.5465 -1.3389
  599SOL     OW 1795   3.087   1.427   1.590  0.1530 -0.5226  0.1023
  599SOL    HW1 1796   3.174   1.372   1.603  0.3080 -0.0514  0.4354
  599SOL    HW2 1797   3.022   1.398   1.663 -0.5322  2.2131 -1.0244
  600SOL     OW 1798   2.516   1.471   2.983  0.1837  0.3532  0.3329
  600SOL    HW1 1799   2.463   1.438   2.900 -1.7196 -3.7005 -2.2894
  600SOL    HW2 1800   2.521   1.402   3.058  0.2849 -0.1931 -0.6692
  601SOL     OW 1801   3.055   2.480   2.202 -0.5419 -0.0177  0.6134
  601SOL    HW1 1802   3.018   2.548   2.268 -2.0397 -0.2153  0.6089
  601SOL    HW2 1803   3.160   2.483   2.205  1.9425  0.6389  1.1522
  602SOL     OW 1804   2.677   1.262   2.681 -0.3745 -0.0387 -0.1781
  602SOL    HW1 1805   2.579   1.228   2.704 -3.1961  2.2294 -0.3732
  602SOL    HW2 1806   2.730   1.264   2.771  0.4525 -2.0026  0.3353
  603SOL     OW 1807   1.669   0.707   1.238  0.0144  0.3610 -0.2037
  603SOL    HW1 1808   1.634   0.652   1.161 -0.1582 -0.3386  0.4806
  603SOL    HW2 1809   1.599   0.719   1.308 -2.1890 -3.6754 -1.6651
  604SOL     OW 1810   1.231   2.067   0.028  0.2235 -0.0290 -0.1835
  604SOL    HW1 1811   1.299   2.087  -0.045  1.2498 -0.5629  2.0418
  604SOL    HW2 1812   1.140   2.038  -0.013 -3.0816 -1.1925 -1.6432
  605SOL     OW 1813   2.366   0.959   0.392 -0.2629 -0.3956  0.4562
  605SOL    HW1 1814   2.374   1.060   0.374 -2.2593  0.1934  2.2235
  605SOL    HW2 1815   2.269   0.935   0.378  3.0195 -1.3220  1.1604
  606SOL     OW 1816   2.772   2.398   1.906 -0.1850 -0.6655 -0.6502
  606SOL    HW1 1817   2.784   2.366   1.810  0.8178  2.2998  1.2637
  606SOL    HW2 1818   2.840   2.466   1.938 -0.5430 -1.9973  0.9295
  607SOL     OW 1819   0.056   2.137   0.175 -0.3944  0.4561  0.2057
  607SOL    HW1 1820  -0.037   2.095   0.183  2.1980 -1.4182 -0.0261
  607SOL    HW2 1821   0.090   2.147   0.080 -0.0404 -0.7933 -2.7099
  608SOL     OW 1822   1.041   0.240   1.813  0.1103  0.2118 -0.5636
  608SOL    HW1 1823   1.042   0.339   1.836  1.4680 -0.6859 -1.1273
  608SOL    HW2 1824   1.001   0.225   1.720  0.9199  1.3549  1.8343
  609SOL     OW 1825   1.702   1.672   0.220  0.2549  0.2508 -0.0205
  609SOL    HW1 1826   1.604   1.690   0.238  1.5207 -1.6149  1.3279
  609SOL    HW2 1827   1.718   1.584   0.173  3.9369 -1.6559 -4.0157
  610SOL     OW 1828   1.661   1.233   1.333  0.1216  0.4002  0.4043
  610SOL    HW1 1829   1.711   1.214   1.244  0.1784 -1.2063 -1.0212
  610SOL    HW2 1830   1.673   1.331   1.352  2.9249 -0.1951  0.2968
  611SOL     OW 1831   2.325   1.658   0.074 -0.6105 -0.0200 -0.7448
  611SOL    HW1 1832   2.315   1.629   0.174  0.3277 -1.0961  0.1971
  611SOL    HW2 1833   2.390   1.593   0.027  0.7287 -2.7540  1.1847
  612SOL     OW 1834   1.949   0.408   0.660 -0.1390 -0.1425 -0.5819
  612SOL    HW1 1835   1.993   0.463   0.587  2.5746  0.4165  2.1620
  612SOL    HW2 1836   2.018   0.369   0.721 -1.2664  0.5359 -1.8841
  613SOL     OW 1837   2.655   0.499   2.314 -0.0933 -0.5540 -0.1905
  613SOL    HW1 1838   2.662   0.569   2.242  0.4972 -0.7561  1.2604
  613SOL    HW2 1839   2.601   0.541   2.392  1.4463  1.5081 -0.8604
  614SOL     OW 1840   1.254   0.081   1.468 -0.5061 -0.0719  0.0422
  614SOL    HW1 1841   1.268   0.162   1.531  2.4299 -1.6248 -0.2836
  614SOL    HW2 1842   1.336   0.060   1.415 -4.6923  0.2237  1.5596
  615SOL     OW 1843   2.915   1.683   2.733 -0.1474 -0.0300  0.2076
  615SOL    HW1 1844   2.851   1.683   2.649  0.6394 -0.4245 -2.8314
  615SOL    HW2 1845   2.991   1.618   2.714  0.6936  0.3667 -1.8603
  616SOL     OW 1846   2.991   0.470   0.568  0.6742  0.1606 -0.2338
  616SOL    HW1 1847   3.018   0.377   0.613  0.4429 -2.0531  1.6706
  616SOL    HW2 1848   3.037   0.544   0.619  2.9105 -0.0377  1.2533
  617SOL     OW 1849   2.740   1.539   1.075 -0.4140  0.4483  0.2222
  617SOL    HW1 1850   2.834   1.536   1.033  0.4265 -1.9157  1.4876
  617SOL    HW2 1851   2.672   1.525   1.001  1.2685  3.1061  0.1616
  618SOL     OW 1852   0.676   1.602   1.461  0.0132 -0.2014 -0.4877
  618SOL    HW1 1853   0.721   1.592   1.368 -0.0634 -1.2685 -0.0469
  618SOL    HW2 1854   0.573   1.601   1.445 -1.7694 -4.2672 -0.7648
  619SOL     OW 1855   0.167   1.255   3.037  0.6152 -0.2480  0.1198
  619SOL    HW1 1856   0.249   1.226   3.081 -3.4523  0.8863  1.3667
  619SOL    HW2 1857   0.090   1.242   3.102 -0.4413 -0.4880  0.1067
  620SOL     OW 1858   1.913   2.116   2.238 -0.3011  0.5359 -0.5751
  620SOL    HW1 1859   1.978   2.036   2.253 -0.9940  0.0202  0.8125
  620SOL    HW2 1860   1.942   2.165   2.156  0.4636 -1.2943 -0.8447
  621SOL     OW 1861   1.638   1.944   1.508 -0.0631  0.2370 -0.2586
  621SOL    HW1 1862   1.565   1.900   1.454  0.6021  1.6691  1.4098
  621SOL    HW2 1863   1.726   1.960   1.453  0.5412 -1.8553 -0.8057
  622SOL     OW 1864   1.115   0.608   0.071  0.3473 -0.0072 -0.3598
  622SOL    HW1 1865   1.194   0.632   0.126 -2.4766 -2.3523 -1.8529
  622SOL    HW2 1866   1.095   0.508   0.079  1.8228  0.4431  0.1587
  623SOL     OW 1867   2.362   1.156   1.263  0.2005  0.3017  0.4210
  623SOL    HW1 1868   2.356   1.055   1.272  1.8266  1.5010 -1.2085
  623SOL    HW2 1869   2.280   1.193   1.210 -0.8929  1.9233 -0.0655
  624SOL     OW 1870   2.997   2.377   3.081  0.3457 -0.5813 -0.3784
  624SOL    HW1 1871   2.999   2.396   3.182  1.2583 -0.5975 -0.5171
  624SOL    HW2 1872   3.082   2.421   3.047 -1.0065  0.8853 -0.5916
  625SOL     OW 1873   1.633   1.866   1.170  0.1440  0.0102 -0.4211
  625SOL    HW1 1874   1.636   1.967   1.173  1.5078 -0.3439 -1.7532
  625SOL    HW2 1875   1.536   1.831   1.185 -1.8357  0.8633 -1.1502
  626SOL     OW 1876   0.329   0.017   0.287 -0.2895  0.0599 -0.3478
  626SOL    HW1 1877   0.343   0.094   0.222 -1.2083 -2.5024  1.6115
  626SOL    HW2 1878   0.250  -0.036   0.260  3.8590 -0.6641 -0.4687
  627SOL     OW 1879   1.857   2.701   3.089 -0.0434 -0.0767 -0.3699
  627SOL    HW1 1880   1.823   2.739   3.181 -3.1827  1.6986  0.1163
  627SOL    HW2 1881   1.846   2.765   3.007  1.1772  2.6975 -0.0350
  628SOL     OW 1882   2.252   3.088   1.527 -0.2307  0.0037  0.6593
  628SOL    HW1 1883   2.223   3.148   1.605 -0.0666 -1.0116 -1.0869
  628SOL    HW2 1884   2.327   3.024   1.561  0.1605  1.5655  0.5145
  629SOL     OW 1885   2.195   0.124   1.792 -0.5687  0.2362  0.1634
  629SOL    HW1 1886   2.117   0.138   1.849  2.6220 -1.7745  1.2263
  629SOL    HW2 1887   2.285   0.155   1.838 -1.3232 -1.8108 -2.3633
  630SOL     OW 1888   0.552   2.388   0.260 -0.4357  0.1465  0.0971
  630SOL    HW1 1889   0.453   2.395   0.271  3.0344 -0.3937 -0.8165
  630SOL    HW2 1890   0.589   2.357   0.352  0.0403  0.1199  0.0921
  631SOL     OW 1891   0.128   1.595   1.212  0.2380  0.3800 -0.2692
  631SOL    HW1 1892   0.224   1.637   1.226  1.2212  0.6005  2.2611
  631SOL    HW2 1893   0.070   1.668   1.170  1.6932  0.1443  1.1712
  632SOL     OW 1894   2.860   0.892   0.636 -0.2232 -0.0026  0.3905
  632SOL    HW1 1895   2.863   0.944   0.549 -0.5051 -2.8622  3.4108
  632SOL    HW2 1896   2.831   0.953   0.711  3.1879  0.0132 -0.2782
  633SOL     OW 1897   2.763   1.816   0.910  0.3535  0.6409  0.6185
  633SOL    HW1 1898   2.665   1.845   0.908 -0.1060  1.6179  0.1397
  633SOL    HW2 1899   2.775   1.714   0.901 -1.3070 -0.9880  0.8829
  634SOL     OW 1900   0.357   1.156   0.076  0.4892 -0.1670  0.7057
  634SOL    HW1 1901   0.454   1.189   0.090  0.4539  0.8470 -1.0593
  634SOL    HW2 1902   0.362   1.053   0.060  2.3631  1.2307  0.3783
  635SOL     OW 1903   1.930   2.943   1.116  0.6596  0.3509 -0.4771
  635SOL    HW1 1904   1.864   3.016   1.143 -0.9522  0.0287 -2.0088
  635SOL    HW2 1905   2.024   2.955   1.160  2.7016 -2.2168 -1.6273
  636SOL     OW 1906   2.760   0.241   1.372 -0.1607 -0.5698 -0.2695
  636SOL    HW1 1907   2.825   0.185   1.421 -0.9146 -0.1519 -1.0526
  636SOL    HW2 1908   2.709   0.288   1.446 -1.4811 -0.4171 -1.5979
  637SOL     OW 1909   2.772   1.238   0.298  0.4948 -0.1153 -0.1166
  637SOL    HW1 1910   2.766   1.157   0.235  1.1741 -1.4051  2.1998
  637SOL    HW2 1911   2.695   1.303   0.280 -1.8637 -0.7740 -0.2871
  638SOL     OW 1912   2.076   0.834   1.494  0.1153  0.4290  0.4838
  638SOL    HW1 1913   2.165   0.873   1.525  1.0289 -2.1590 -0.3294
  638SOL    HW2 1914   2.014   0.906   1.455  0.3846 -0.9408  1.4843
  639SOL     OW 1915   2.648   0.860   0.301 -0.5698  0.1436 -0.3088
  639SOL    HW1 1916   2.725   0.800   0.341  2.1450  0.7483  2.3704
  639SOL    HW2 1917   2.601   0.901   0.382  1.3856 -0.0180  1.9254
  640SOL     OW 1918   0.704   1.711   2.874 -0.6422  0.3391 -0.3394
  640SOL    HW1 1919   0.671   1.808   2.892  2.1153  2.3122 -0.5249
  640SOL    HW2 1920   0.626   1.649   2.848  0.3113 -1.6020  0.1649
  641SOL     OW 1921   2.260   0.217   0.497  0.6303  0.3948  0.5092
  641SOL    HW1 1922   2.300   0.233   0.592 -0.9711  3.7940  1.3254
  641SOL    HW2 1923   2.331   0.238   0.423  3.5914 -0.7635 -0.5490
  642SOL     OW 1924   2.273   1.629   0.347  0.3164 -0.4796  0.3680
  642SOL    HW1 1925   2.177   1.597   0.373  0.5791 -0.5496  0.8458
  642SOL    HW2 1926   2.349   1.580   0.395 -0.4603  0.0225  1.4730
  643SOL     OW 1927   2.402   2.880   1.876  0.2621 -0.2038 -0.1100
  643SOL    HW1 1928   2.314   2.882   1.830 -1.1857 -1.9764  0.5672
  643SOL    HW2 1929   2.458   2.960   1.844  2.1202  1.7853 -1.8641
  644SOL     OW 1930   0.249   0.934   1.325  0.4903 -0.1447 -0.2540
  644SOL    HW1 1931   0.171   0.999   1.337  2.2487 -0.0157  0.6073
  644SOL    HW2 1932   0.327   0.953   1.393 -0.4061 -1.9881  1.2174
  645SOL     OW 1933   2.296   0.536   2.904  0.3418  0.3223  0.3847
  645SOL    HW1 1934   2.299   0.498   2.997 -2.3362  3.4771 -0.9844
  645SOL    HW2 1935   2.198   0.529   2.874 -3.0369  1.4696  1.6033
  646SOL     OW 1936   0.950   1.863   1.075 -0.5932 -0.3730  0.0656
  646SOL    HW1 1937   1.036   1.854   1.016 -1.1722 -0.2373 -1.5416
  646SOL    HW2 1938   0.973   1.904   1.164  0.2731 -1.0804  1.2677
  647SOL     OW 1939   3.048   1.213   1.118 -0.9250 -0.2825  0.6456
  647SOL    HW1 1940   3.017   1.287   1.176 -1.9754 -1.9624  2.9224
  647SOL    HW2 1941   3.053   1.245   1.020  0.5453  0.2396  2.5907
  648SOL     OW 1942   2.101   2.978   2.757 -0.2102 -0.0919  0.7773
  648SOL    HW1 1943   2.138   2.996   2.849 -0.1091 -2.4503 -1.1568
  648SOL    HW2 1944   2.168   2.917   2.710 -2.7697  1.3082 -0.0617
  649SOL     OW 1945   2.127   0.228   1.083 -0.0559  0.0191  0.2465
  649SOL    HW1 1946   2.209   0.183   1.121 -0.4805 -0.2540 -1.2600
  649SOL    HW2 1947   2.052   0.225   1.153 -0.3652  0.2265  0.0021
  650SOL     OW 1948   2.480   1.838   0.566  0.7625  0.1607 -0.5507
  650SOL    HW1 1949   2.572   1.884   0.550  3.8587 -0.1012 -0.8925
  650SOL    HW2 1950   2.409   1.879   0.503 -0.0230  3.0459 -1.0047
  651SOL     OW 1951   2.745   0.347   0.144 -0.6314 -0.1325 -0.3358
  651SOL    HW1 1952   2.733   0.372   0.243 -1.2087  0.9126  4.0121
  651SOL    HW2 1953   2.699   0.418   0.091  0.6153  0.5912  2.7208
  652SOL     OW 1954   2.102   0.894   0.374 -0.2661  0.0946  0.1269
  652SOL    HW1 1955   2.053   0.977   0.346  0.7708 -2.2383  2.1011
  652SOL    HW2 1956   2.062   0.850   0.460  1.6275  1.4554  0.6588
  653SOL     OW 1957   2.121   0.507   0.487  0.2791  0.1498 -0.0767
  653SOL    HW1 1958   2.171   0.442   0.434 -0.1510  0.8909 -0.3491
  653SOL    HW2 1959   2.060   0.557   0.423  0.7015 -2.2353  0.2885
  654SOL     OW 1960   0.282   1.315   0.784  0.2497 -0.7471  0.2503
  654SOL    HW1 1961   0.193   1.295   0.731 -1.8560  0.4864 -0.6369
  654SOL    HW2 1962   0.360   1.313   0.716  0.5692 -1.1543  1.3881
  655SOL     OW 1963   3.004   0.788   1.240  0.0321 -0.6553  0.4547
  655SOL    HW1 1964   2.964   0.860   1.177 -1.9756 -0.0519 -1.5498
  655SOL    HW2 1965   3.077   0.829   1.299 -0.0320  2.8694  0.6360
  656SOL     OW 1966   2.778   2.677   0.140 -0.0562 -0.6673  0.4760
  656SOL    HW1 1967   2.680   2.662   0.168 -0.0602 -0.0295  1.6142
  656SOL    HW2 1968   2.787   2.677   0.037  0.9059 -2.2856  1.0200
  657SOL     OW 1969   0.281   1.357   1.207  0.2081 -0.1013 -0.6073
  657SOL    HW1 1970   0.201   1.414   1.230  0.0244 -0.4452 -1.1123
  657SOL    HW2 1971   0.325   1.323   1.293 -0.3098 -0.6773  0.4705
  658SOL     OW 1972   2.962   0.623   2.222  0.2607 -0.0043 -0.2210
  658SOL    HW1 1973   2.954   0.559   2.147  1.0260 -2.5534 -3.3894
  658SOL    HW2 1974   2.993   0.578   2.309 -0.4998 -0.0509  0.3887
  659SOL     OW 1975   2.999   0.633   0.984 -0.2229 -0.4958  0.1065
  659SOL    HW1 1976   3.037   0.662   1.072  1.1867 -1.3621 -3.1170
  659SOL    HW2 1977   2.918   0.690   0.955  0.1693  0.0545 -1.4432
  660SOL     OW 1978   2.625   1.311   1.893  0.7848 -0.6285  0.0040
  660SOL    HW1 1979   2.592   1.405   1.864 -2.3202  2.4288  1.2896
  660SOL    HW2 1980   2.550   1.243   1.904 -1.7250 -0.4781  1.3466
  661SOL     OW 1981   0.074   1.067   0.343 -0.0379 -0.0932  0.0429
  661SOL    HW1 1982   0.096   0.967   0.354 -2.4298  0.2357 -0.8008
  661SOL    HW2 1983   0.117   1.123   0.415 -0.2871  0.9394  1.5196
  662SOL     OW 1984   2.588   0.338   0.896 -0.0876 -0.0075  0.4524
  662SOL    HW1 1985   2.644   0.351   0.808 -0.2376  4.1927  2.4348
  662SOL    HW2 1986   2.656   0.338   0.975 -0.2808  0.0701 -0.8676
  663SOL     OW 1987   3.086   1.252   2.813  0.4120  0.5864 -0.1407
  663SOL    HW1 1988   3.152   1.214   2.888 -0.7837  0.9301  2.0681
  663SOL    HW2 1989   3.071   1.191   2.735  0.8303 -1.0947  0.1278
  664SOL     OW 1990   1.870   2.502   0.775 -0.1425  0.0117 -0.1482
  664SOL    HW1 1991   1.776   2.462   0.794 -0.7415 -1.0508 -0.8922
  664SOL    HW2 1992   1.929   2.500   0.859 -0.1322  2.3879 -0.2126
  665SOL     OW 1993   2.680   0.679   0.647  0.0030  0.2385 -0.2855
  665SOL    HW1 1994   2.583   0.702   0.621  0.8739 -0.7437 -1.8357
  665SOL    HW2 1995   2.739   0.759   0.656  1.2808 -1.7788 -1.8459
  666SOL     OW 1996   2.392   0.639   1.328  0.1281 -0.3925 -0.4426
  666SOL    HW1 1997   2.318   0.577   1.364  0.0734  0.5929 -0.8150
  666SOL    HW2 1998   2.475   0.648   1.387  0.8140  0.0762 -1.6427
  667SOL     OW 1999   1.181   2.716   2.449 -0.4972  0.4868  0.2338
  667SOL    HW1 2000   1.133   2.750   2.533 -1.1520  2.3941  2.5721
  667SOL    HW2 2001   1.282   2.710   2.468  1.1299 -1.4437  1.6247
  668SOL     OW 2002   2.172   1.227   1.065  0.3057 -0.0193 -0.1563
  668SOL    HW1 2003   2.225   1.264   0.991 -1.2164 -0.6864 -1.0600
  668SOL    HW2 2004   2.099   1.171   1.026  1.8135  2.5056  1.7624
  669SOL     OW 2005   2.525   0.668   2.082 -0.6218  0.2280  0.3834
  669SOL    HW1 2006   2.569   0.751   2.043 -2.3744 -1.6894  0.3380
  669SOL    HW2 2007   2.522   0.595   2.012 -0.9471  1.1087 -0.4310
  670SOL     OW 2008   1.720   1.684   2.738  0.3666 -0.5332  0.7331
  670SOL    HW1 2009   1.781   1.611   2.771  1.4001  0.3839  1.2194
  670SOL    HW2 2010   1.767   1.744   2.674 -1.3243 -0.0699 -0.4416
  671SOL     OW 2011   2.642   0.550   1.208 -0.0255 -0.1851  0.4168
  671SOL    HW1 2012   2.549   0.570   1.241  0.4020 -0.6493 -0.2472
  671SOL    HW2 2013   2.709   0.572   1.283  0.6944  0.0210  0.4706
  672SOL     OW 2014   1.747   0.961   1.520 -0.7561 -0.3895  0.5339
  672SOL    HW1 2015   1.696   0.876   1.487 -0.5668 -1.1078  1.9409
  672SOL    HW2 2016   1.830   0.988   1.467  2.9412  0.0613  0.9895
  673SOL     OW 2017   2.922   2.502   0.662  0.2562 -0.6613  0.5066
  673SOL    HW1 2018   2.944   2.421   0.601  0.3811 -1.6020 -0.7993
  673SOL    HW2 2019   2.988   2.532   0.730 -1.1583  0.8755 -2.9309
  674SOL     OW 2020   2.802   2.899   0.266  0.7056  0.3298 -0.5015
  674SOL    HW1 2021   2.801   2.815   0.209 -0.0059  0.0100  1.4959
  674SOL    HW2 2022   2.720   2.893   0.329 -2.1608  1.0228 -2.4677
  675SOL     OW 2023   1.133   0.637   0.876 -0.6912  0.1958  0.0315
  675SOL    HW1 2024   1.032   0.638   0.891  0.2451  0.1860 -3.1991
  675SOL    HW2 2025   1.160   0.674   0.782 -2.0983  0.5193 -1.5300
  676SOL     OW 2026   3.084   2.264   0.973 -0.5282  0.4649 -0.1804
  676SOL    HW1 2027   3.128   2.235   1.059  0.4789 -0.8971  0.3251
  676SOL    HW2 2028   3.139   2.335   0.924 -0.2496 -0.3212 -1.6610
  677SOL     OW 2029   1.516   0.684   2.794  0.2191  0.1662  0.0951
  677SOL    HW1 2030   1.565   0.639   2.721 -0.7429 -1.6664  1.2928
  677SOL    HW2 2031   1.555   0.657   2.882  0.0223 -0.9103  0.9526
  678SOL     OW 2032   2.905   1.294   2.545  0.4417 -0.0572 -0.0514
  678SOL    HW1 2033   2.809   1.278   2.578 -1.4159  1.1750 -0.1040
  678SOL    HW2 2034   2.960   1.209   2.558 -1.6620 -3.2486  1.3968
  679SOL     OW 2035   0.001   0.598   0.333  0.2752  0.4843 -0.3206
  679SOL    HW1 2036   0.058   0.678   0.363 -5.6370 -0.1381 -2.7595
  679SOL    HW2 2037  -0.013   0.525   0.404 -3.2909 -2.9979  0.4183
  680SOL     OW 2038   2.602   0.379   1.527 -0.2758 -1.0300 -0.6136
  680SOL    HW1 2039   2.627   0.472   1.494  0.0454 -1.6779 -0.2087
  680SOL    HW2 2040   2.523   0.335   1.479 -1.2991 -1.2891 -0.5067
  681SOL     OW 2041   2.600   1.805   1.903  0.0427  0.0218 -0.0956
  681SOL    HW1 2042   2.658   1.776   1.982  0.0364  3.5692 -0.6439
  681SOL    HW2 2043   2.554   1.719   1.872  1.3669 -3.4522 -0.6578
  682SOL     OW 2044   0.064   0.817   2.055 -0.0941  0.2340 -0.0714
  682SOL    HW1 2045   0.019   0.793   2.144 -0.0718 -1.1520  0.9817
  682SOL    HW2 2046   0.096   0.736   2.006  2.1706 -3.0177 -0.5265
  683SOL     OW 2047   1.168   1.559   0.614  0.0311 -0.2220 -0.5777
  683SOL    HW1 2048   1.119   1.578   0.703  0.2518  0.9931 -2.2273
  683SOL    HW2 2049   1.166   1.650   0.565  0.7345  1.8070 -2.3660
  684SOL     OW 2050   2.343   1.298   1.487 -0.6522 -0.1765  0.0177
  684SOL    HW1 2051   2.355   1.259   1.390 -0.6263  0.8515 -4.8248
  684SOL    HW2 2052   2.247   1.301   1.519 -1.2490  0.2053 -0.8504
  685SOL     OW 2053   2.780   1.652   0.357  0.0209 -0.3147  0.0488
  685SOL    HW1 2054   2.848   1.721   0.391 -0.5971 -0.6373  1.4514
  685SOL    HW2 2055   2.826   1.586   0.298 -0.3107  0.5234 -0.4136
  686SOL     OW 2056   2.918   0.528   1.308 -0.5245  0.2684  0.2739
  686SOL    HW1 2057   2.978   0.448   1.291 -0.0505 -0.7177 -0.0604
  686SOL    HW2 2058   2.954   0.611   1.258 -0.6343  0.3432 -0.3816
  687SOL     OW 2059   1.670   0.122   0.898  0.1626  0.2235  0.0903
  687SOL    HW1 2060   1.736   0.046   0.876 -0.1568 -2.0358 -0.3664
  687SOL    HW2 2061   1.583   0.107   0.849 -0.8075  1.2546 -0.1148
  688SOL     OW 2062   2.449   1.132   1.917  0.6180 -0.1114 -0.0641
  688SOL    HW1 2063   2.376   1.123   1.987 -2.8485  0.7775  2.8044
  688SOL    HW2 2064   2.504   1.046   1.913  1.1617  1.2539 -2.0118
  689SOL     OW 2065   2.759   0.125   2.509  0.4390  0.2554  0.3969
  689SOL    HW1 2066   2.678   0.171   2.562 -4.5599  1.8118  1.6585
  689SOL    HW2 2067   2.755   0.029   2.543 -1.0097 -0.1388  0.9002
  690SOL     OW 2068   2.280   1.292   2.480  0.5260  0.0224 -0.3239
  690SOL    HW1 2069   2.180   1.305   2.487 -0.7569 -0.0686 -1.1235
  690SOL    HW2 2070   2.317   1.385   2.499 -0.1493  2.1765 -0.7296
  691SOL     OW 2071   2.719   0.690   0.947 -0.1494  0.2855 -0.4222
  691SOL    HW1 2072   2.692   0.668   0.851 -1.5733 -0.2695  2.6401
  691SOL    HW2 2073   2.686   0.618   1.008  2.2285 -1.2410 -2.5522
  692SOL     OW 2074   2.493   1.131   1.652 -0.0265  0.1733 -0.1645
  692SOL    HW1 2075   2.475   1.123   1.750  0.5092  1.2984  0.4821
  692SOL    HW2 2076   2.434   1.198   1.605  1.4038 -0.4176 -1.0191
  693SOL     OW 2077   2.550   0.902   1.028 -0.2915  0.1589 -0.0795
  693SOL    HW1 2078   2.499   0.891   1.114 -1.9223 -0.2665  0.2064
  693SOL    HW2 2079   2.606   0.822   1.006 -4.0025  0.4153 -0.2039
  694SOL     OW 2080   2.864   0.777   1.706 -0.0244 -0.6555 -0.2106
  694SOL    HW1 2081   2.841   0.838   1.628 -0.1865 -1.5161 -0.7817
  694SOL    HW2 2082   2.876   0.833   1.789 -3.0669  0.6374 -1.8058
  695SOL     OW 2083   0.039   0.875   2.439  0.1158  0.1832 -0.5803
  695SOL    HW1 2084  -0.036   0.813   2.418  1.0188  0.8927  1.0387
  695SOL    HW2 2085   0.125   0.868   2.382  0.4126 -0.7840  0.1188
  696SOL     OW 2086   2.997   0.608   1.562 -0.4447  0.6504 -0.3767
  696SOL    HW1 2087   2.952   0.585   1.472 -2.6167 -1.8803 -0.2019
  696SOL    HW2 2088   2.939   0.665   1.626  1.0065  1.8714  0.8022
  697SOL     OW 2089   2.670   1.736   2.148 -0.3130  0.5581 -0.0064
  697SOL    HW1 2090   2.677   1.636   2.165 -1.2438 -0.9897  1.3163
  697SOL    HW2 2091   2.730   1.790   2.209  0.7596  1.1164 -0.4485
  698SOL     OW 2092   2.800   0.222   2.996 -0.1612 -0.3542  0.3022
  698SOL    HW1 2093   2.806   0.260   3.087  3.9740  1.8662 -1.0955
  698SOL    HW2 2094   2.707   0.240   2.958  0.4930 -0.6350  0.3819
  699SOL     OW 2095   2.091   1.118   1.716  0.0731  0.7191 -0.8934
  699SOL    HW1 2096   2.101   1.211   1.675 -0.9418  1.4087 -0.5713
  699SOL    HW2 2097   2.150   1.053   1.672 -0.0489 -0.8689  1.9762
  700SOL     OW 2098   0.088   1.944   0.776  0.1192  0.1033 -0.2188
  700SOL    HW1 2099   0.168   1.912   0.828 -1.8778  0.8420  1.1494
  700SOL    HW2 2100   0.013   1.956   0.845 -0.4538 -0.0927  0.2374
  701SOL     OW 2101   0.298   1.837   2.367  0.0753  0.2323 -0.3434
  701SOL    HW1 2102   0.271   1.800   2.455 -0.2364  0.0064 -0.1488
  701SOL    HW2 2103   0.296   1.937   2.374 -0.2722 -0.9193  1.7566
  702SOL     OW 2104   0.802   2.966   1.769 -0.2647  0.8367  0.5256
  702SOL    HW1 2105   0.811   3.023   1.685 -1.5112 -0.9768  0.5921
  702SOL    HW2 2106   0.825   2.869   1.752  0.1724  0.8331  0.5908
  703SOL     OW 2107   2.610   0.318   2.134 -0.3669  0.1769 -0.2027
  703SOL    HW1 2108   2.582   0.229   2.169 -1.0168  0.8391  0.7913
  703SOL    HW2 2109   2.629   0.387   2.208  0.8887  1.2575  1.6547
  704SOL     OW 2110   1.185   0.942   0.254 -0.1971  0.0372  0.3704
  704SOL    HW1 2111   1.180   1.034   0.288 -2.3179 -2.2319 -2.2361
  704SOL    HW2 2112   1.096   0.915   0.217 -0.2084  2.7253  1.1153
  705SOL     OW 2113   2.887   0.994   1.119 -0.0801 -0.6423  0.7988
  705SOL    HW1 2114   2.796   1.025   1.160  2.1385  1.2902  1.2442
  705SOL    HW2 2115   2.942   1.075   1.095 -0.2056 -0.3557  1.4648
  706SOL     OW 2116   2.799   0.703   2.964 -0.2606  0.1531  0.0316
  706SOL    HW1 2117   2.864   0.716   2.886  2.2387 -1.2977  0.1036
  706SOL    HW2 2118   2.846   0.737   3.050  1.9713  2.7858 -0.1916
  707SOL     OW 2119   3.079   0.297   1.282  0.6723  0.2575 -0.4002
  707SOL    HW1 2120   3.091   0.258   1.190 -0.1632 -0.1079  2.9174
  707SOL    HW2 2121   3.053   0.226   1.353  1.0183  1.0317  2.6917
  708SOL     OW 2122   2.908   1.476   0.192 -0.3721 -0.0180 -0.1762
  708SOL    HW1 2123   2.878   1.487   0.097  1.8150 -0.0566 -0.2035
  708SOL    HW2 2124   2.917   1.380   0.224 -2.1535 -0.1925  0.9279
  709SOL     OW 2125   1.967   1.458   0.043  0.5487  0.1274  0.0609
  709SOL    HW1 2126   1.864   1.442   0.034  0.0538 -1.6491 -1.3709
  709SOL    HW2 2127   2.000   1.557   0.031  0.3091  0.3526  1.0113
  710SOL     OW 2128   1.736   0.397   1.920  0.6906  0.6381 -0.2598
  710SOL    HW1 2129   1.710   0.314   1.861  1.1970  1.1929  0.7115
  710SOL    HW2 2130   1.668   0.406   1.998  0.5240  0.8109  0.3499
  711SOL     OW 2131   2.293   2.722   1.534 -0.1164 -0.5313 -0.4103
  711SOL    HW1 2132   2.203   2.727   1.490 -0.7175  1.8978 -0.0277
  711SOL    HW2 2133   2.292   2.648   1.600  1.8967 -1.2150 -0.0290
  712SOL     OW 2134   1.813   2.781   0.720  0.7017 -0.8699 -0.2699
  712SOL    HW1 2135   1.851   2.690   0.748  1.6838 -2.9087  1.8523
  712SOL    HW2 2136   1.805   2.792   0.621  0.0762  0.5655  2.0148
  713SOL     OW 2137   1.473   0.027   1.291  0.1007 -0.3231 -0.0002
  713SOL    HW1 2138   1.519  -0.008   1.375 -0.9304  0.0107 -1.9500
  713SOL    HW2 2139   1.452  -0.048   1.230 -0.2567  2.0606 -0.5131
  714SOL     OW 2140   0.341   0.648   1.810 -0.0295  0.2121  0.0601
  714SOL    HW1 2141   0.270   0.639   1.883 -2.3431 -0.5493  0.7878
  714SOL    HW2 2142   0.380   0.552   1.799 -0.1508 -1.8475  3.8556
  715SOL     OW 2143   1.377   1.710   1.060  0.1472 -0.1219  0.2571
  715SOL    HW1 2144   1.296   1.647   1.074 -0.1841  1.0607  1.5950
  715SOL    HW2 2145   1.352   1.801   1.091  1.5516 -0.4484  0.3344
  716SOL     OW 2146   2.586   1.525   0.834  1.1310  0.0907 -0.0160
  716SOL    HW1 2147   2.635   1.529   0.745  0.2982  0.8623 -1.5341
  716SOL    HW2 2148   2.522   1.602   0.841  2.7170  0.1126 -0.1408
  717SOL     OW 2149   2.733   1.518   0.604  0.1620  0.2723  0.1765
  717SOL    HW1 2150   2.823   1.475   0.624  0.4831  0.4622 -1.0002
  717SOL    HW2 2151   2.750   1.581   0.526  3.4059 -1.2994  1.1162
  718SOL     OW 2152   2.112   2.021   0.589  0.6019 -0.1391  0.1488
  718SOL    HW1 2153   2.120   1.923   0.595 -0.6630  0.2354 -0.1673
  718SOL    HW2 2154   2.192   2.071   0.555  0.5382 -1.5010  1.0489
  719SOL     OW 2155   0.888   1.778   0.316  0.3622 -0.3604 -0.0055
  719SOL    HW1 2156   0.858   1.681   0.298 -0.6973  0.6089  0.4053
  719SOL    HW2 2157   0.938   1.813   0.235 -0.8914  1.8719  0.7930
  720SOL     OW 2158   0.157   0.826   0.424 -0.1026  0.4010  0.1503
  720SOL    HW1 2159   0.217   0.795   0.345  3.5608 -2.6512 -2.9585
  720SOL    HW2 2160   0.202   0.827   0.514 -1.2751  2.5367 -2.4200
  721SOL     OW 2161   2.043   1.863   2.192  0.2469 -0.5516  0.5822
  721SOL    HW1 2162   2.100   1.866   2.109 -1.1605 -0.9635  0.6732
  721SOL    HW2 2163   1.954   1.819   2.170 -0.6594  0.1131  1.3772
  722SOL     OW 2164   1.994   1.309   1.302 -0.3586  0.6999 -0.1682
  722SOL    HW1 2165   1.906   1.347   1.266  0.9382  1.2353 -0.5770
  722SOL    HW2 2166   2.061   1.299   1.224 -1.5567 -4.7148 -0.7615
  723SOL     OW 2167   3.048   1.425   1.319  0.1972 -0.0833 -0.1537
  723SOL    HW1 2168   3.058   1.428   1.418 -0.3857 -1.8107 -3.5844
  723SOL    HW2 2169   3.118   1.489   1.279 -0.1014  0.7113 -2.8582
  724SOL     OW 2170   1.499   0.592   0.458  0.2078  0.0655  0.3613
  724SOL    HW1 2171   1.477   0.503   0.500  0.1291  1.4213 -1.7120
  724SOL    HW2 2172   1.600   0.612   0.468 -1.4017  0.3639 -2.4186
  725SOL     OW 2173   1.850   0.471   1.688  0.2015 -0.2940  0.9316
  725SOL    HW1 2174   1.797   0.461   1.774 -0.5916 -2.1385 -0.4473
  725SOL    HW2 2175   1.875   0.571   1.667 -1.6003  3.0097 -1.7120
  726SOL     OW 2176   2.486   2.684   0.749  0.0917 -0.9092  0.4138
  726SOL    HW1 2177   2.581   2.701   0.712  2.1548  2.0923  0.0774
  726SOL    HW2 2178   2.493   2.699   0.850  2.5417  2.3949 -1.9787
  727SOL     OW 2179   2.461   2.420   0.368  0.1292 -0.0833 -0.8773
  727SOL    HW1 2180   2.484   2.329   0.330  0.5428  2.9805 -1.3175
  727SOL    HW2 2181   2.497   2.432   0.462  1.7283 -1.1805  0.1291
  728SOL     OW 2182   2.633   0.908   2.043 -0.6786 -0.0166 -0.4407
  728SOL    HW1 2183   2.733   0.924   2.025  0.9585 -1.1418  2.0168
  728SOL    HW2 2184   2.617   0.931   2.144  1.8423  0.4399  0.8197
  729SOL     OW 2185   2.475   1.543   1.527  0.0329  0.3200 -0.7680
  729SOL    HW1 2186   2.445   1.604   1.454 -0.5965  1.5215  2.5227
  729SOL    HW2 2187   2.426   1.460   1.510 -0.2494  0.1430  0.6706
  730SOL     OW 2188   2.515   1.289   0.102  0.2732 -0.0995 -0.2203
  730SOL    HW1 2189   2.453   1.304   0.180  0.8454  2.5481 -0.1401
  730SOL    HW2 2190   2.542   1.191   0.104 -0.7370 -1.5933 -0.4917
  731SOL     OW 2191   2.324   1.272   0.323 -0.1538 -0.4377  0.2518
  731SOL    HW1 2192   2.246   1.267   0.259  1.2140 -0.3820 -2.6949
  731SOL    HW2 2193   2.294   1.276   0.421 -1.3013  0.1337 -1.3708
  732SOL     OW 2194   1.662   0.730   1.968  0.4144 -0.2206  0.5797
  732SOL    HW1 2195   1.636   0.635   1.938 -2.3795 -1.3638  0.4190
  732SOL    HW2 2196   1.585   0.791   1.941 -0.2988  4.8012 -3.4113
  733SOL     OW 2197   1.783   2.838   0.225 -0.0589  0.3477 -0.1425
  733SOL    HW1 2198   1.693   2.847   0.268 -1.0473 -0.6915  0.0540
  733SOL    HW2 2199   1.851   2.831   0.302  3.6770 -0.1521  2.6873
  734SOL     OW 2200   2.278   3.063   2.967  0.2277  0.2217 -0.0418
  734SOL    HW1 2201   2.381   3.040   2.954  1.7966  1.2220  1.1400
  734SOL    HW2 2202   2.231   3.009   3.039  0.6379  1.7096 -2.7359
  735SOL     OW 2203   0.276   0.820   2.861 -0.0970  0.0887  0.2996
  735SOL    HW1 2204   0.269   0.724   2.892 -0.2432 -1.3673  0.9605
  735SOL    HW2 2205   0.184   0.866   2.860 -0.3949 -0.6580  2.3453
  736SOL     OW 2206   0.784   0.783   1.797  0.3693  0.4824  0.2991
  736SOL    HW1 2207   0.728   0.727   1.734 -0.0971  1.7796  0.4557
  736SOL    HW2 2208   0.745   0.789   1.887  1.3846  1.2317 -1.1421
  737SOL     OW 2209   2.476   0.756   2.914 -0.4749 -0.2334 -0.8070
  737SOL    HW1 2210   2.438   0.660   2.907  3.2247 -1.2628  1.0795
  737SOL    HW2 2211   2.575   0.749   2.938  0.1013  1.7898 -0.4468
  738SOL     OW 2212   2.248   0.476   2.610  0.1104 -0.0056 -0.5036
  738SOL    HW1 2213   2.149   0.459   2.609  1.1525  0.9575 -1.1611
  738SOL    HW2 2214   2.280   0.481   2.706 -2.0867 -1.6383 -1.9125
  739SOL     OW 2215   2.933   0.807   0.072  0.0488 -0.1905  0.3288
  739SOL    HW1 2216   2.964   0.887   0.019  1.0526  0.9089  1.0794
  739SOL    HW2 2217   2.947   0.824   0.171  2.2092  1.2401 -2.7792
  740SOL     OW 2218   2.634   1.926   3.061  0.3607  0.6658 -0.1905
  740SOL    HW1 2219   2.705   1.861   3.029 -0.2955  1.4894  0.9539
  740SOL    HW2 2220   2.626   1.912   3.160 -1.3595  2.6087 -1.0142
  741SOL     OW 2221   1.502   1.610   2.608 -0.4887 -0.1583  0.0628
  741SOL    HW1 2222   1.536   1.531   2.557  2.1100  2.1130  0.9514
  741SOL    HW2 2223   1.585   1.641   2.665  1.3661  0.1622  1.1532
  742SOL     OW 2224   2.829   1.272   2.908  0.1819 -0.0626 -0.3718
  742SOL    HW1 2225   2.923   1.310   2.881 -2.0966  2.2581 -5.3092
  742SOL    HW2 2226   2.775   1.344   2.949  0.6846 -1.8352 -1.5101
  743SOL     OW 2227   1.826   1.140   2.073 -0.4530  0.4308 -0.2386
  743SOL    HW1 2228   1.872   1.053   2.110  1.2724 -0.4171  2.1180
  743SOL    HW2 2229   1.806   1.131   1.973 -0.0873 -1.9597  1.3480
  744SOL     OW 2230   1.592   0.370   2.150  0.1902  0.4759 -0.1342
  744SOL    HW1 2231   1.666   0.298   2.157  0.8930  1.0540 -0.3868
  744SOL    HW2 2232   1.514   0.346   2.204 -0.0028 -0.5717  0.8660
  745SOL     OW 2233   2.230   0.749   0.202 -0.2562  0.2128 -0.2965
  745SOL    HW1 2234   2.222   0.648   0.200 -1.3174  0.4891  0.6112
  745SOL    HW2 2235   2.159   0.793   0.259  3.3269 -0.7370  1.6307
  746SOL     OW 2236   1.950   1.752   1.471 -0.0132  0.0110 -0.1065
  746SOL    HW1 2237   2.040   1.730   1.524  2.5237  0.0332  1.3384
  746SOL    HW2 2238   1.932   1.854   1.475 -0.6650  1.5179  1.9509
  747SOL     OW 2239   2.482   0.731   0.126  0.4161  0.1536  0.1217
  747SOL    HW1 2240   2.386   0.745   0.141  2.7340 -1.2989  1.0324
  747SOL    HW2 2241   2.542   0.775   0.195 -2.2435  1.6808  0.5611
  748SOL     OW 2242   2.324   2.995   2.135  0.0308 -0.3908  0.0724
  748SOL    HW1 2243   2.367   2.958   2.054  1.9018 -0.0145  1.6945
  748SOL    HW2 2244   2.378   3.062   2.182  2.2076  2.9003 -0.6381
  749SOL     OW 2245   0.963   1.332   0.730  0.1609 -0.5244 -0.7278
  749SOL    HW1 2246   1.004   1.278   0.808 -1.2790 -1.1177 -2.2081
  749SOL    HW2 2247   0.993   1.302   0.641 -1.1263  2.5907  0.3551
  750SOL     OW 2248   2.094   0.754   1.944  0.2048  0.0100  0.3843
  750SOL    HW1 2249   2.045   0.832   1.983  3.4838 -2.5886  1.1446
  750SOL    HW2 2250   2.068   0.738   1.849 -1.5582 -0.7917 -0.8142
  751SOL     OW 2251   2.772   0.490   2.664 -0.3456 -0.3694  0.0826
  751SOL    HW1 2252   2.861   0.436   2.665  2.5137  1.6976  0.5481
  751SOL    HW2 2253   2.787   0.590   2.685  1.3487 -0.0651 -0.1495
  752SOL     OW 2254   1.966   1.105   0.241  1.0837 -0.5803 -0.0066
  752SOL    HW1 2255   1.930   1.133   0.336 -1.9567  0.6331  2.3084
  752SOL    HW2 2256   2.030   1.172   0.202 -0.3289  1.1053  1.1535
  753SOL     OW 2257   2.860   0.328   2.359 -0.1124 -0.0064  0.3208
  753SOL    HW1 2258   2.840   0.254   2.427  0.8811 -0.1032 -0.8359
  753SOL    HW2 2259   2.789   0.404   2.353 -6.0263  4.6127 -1.7459
  754SOL     OW 2260   2.287   0.211   2.859  0.1059  0.3611 -0.1385
  754SOL    HW1 2261   2.271   0.112   2.877  0.2601  1.4422  0.0500
  754SOL    HW2 2262   2.241   0.247   2.771 -2.0057  1.6642  0.6374
  755SOL     OW 2263   0.195   2.904   2.811 -0.4898 -0.1059 -0.0063
  755SOL    HW1 2264   0.244   2.942   2.895  0.8552  0.7395  0.8214
  755SOL    HW2 2265   0.190   2.976   2.739 -0.6407 -1.0913  2.6036
  756SOL     OW 2266   0.317   1.528   2.280 -0.2008 -0.6278 -0.3145
  756SOL    HW1 2267   0.385   1.561   2.356  1.6806 -0.6973  3.4417
  756SOL    HW2 2268   0.324   1.587   2.197 -2.1697  0.0668  1.6133
  757SOL     OW 2269   1.804   1.149   1.809 -0.5253 -0.1503 -0.1958
  757SOL    HW1 2270   1.759   1.162   1.722 -1.6106  0.2772  1.0969
  757SOL    HW2 2271   1.901   1.117   1.794  3.4435 -1.3187  0.1930
  758SOL     OW 2272   2.292   2.196   1.184  0.4147 -0.5890 -0.3345
  758SOL    HW1 2273   2.294   2.274   1.117 -0.0689  0.8475 -3.9510
  758SOL    HW2 2274   2.207   2.144   1.191  2.2972 -1.7053 -0.0149
  759SOL     OW 2275   2.032   1.299   0.635  0.0350  0.8871  0.2859
  759SOL    HW1 2276   1.993   1.373   0.696 -1.8852  0.8042  1.3822
  759SOL    HW2 2277   2.135   1.306   0.627  0.9264 -2.0592  2.2413
  760SOL     OW 2278   2.317   1.566   2.541 -0.4766 -0.2989 -0.1465
  760SOL    HW1 2279   2.284   1.644   2.605  0.7418 -1.1752 -0.5610
  760SOL    HW2 2280   2.254   1.568   2.461  1.6384  1.5515 -0.9305
  761SOL     OW 2281   2.894   2.894   2.183 -0.2589  0.4949  0.3888
  761SOL    HW1 2282   2.845   2.972   2.232 -1.7596 -4.0143  0.5872
  761SOL    HW2 2283   2.817   2.829   2.164 -1.6059  3.1575  1.6077
  762SOL     OW 2284   2.292   2.154   2.384  0.0195  0.1621  0.0589
  762SOL    HW1 2285   2.220   2.216   2.429 -2.8815  3.5611  0.4783
  762SOL    HW2 2286   2.330   2.187   2.293  4.3049  1.0420 -2.4235
  763SOL     OW 2287   2.944   2.125   2.975  0.6244 -0.6562  0.3471
  763SOL    HW1 2288   2.875   2.078   3.032  2.3784  1.7366 -0.8964
  763SOL    HW2 2289   2.956   2.226   2.994  2.1672  1.4889 -1.2517
  764SOL     OW 2290   3.093   0.518   2.658 -0.0544 -0.5909  0.6443
  764SOL    HW1 2291   3.108   0.552   2.561  1.3660  1.3417  2.2732
  764SOL    HW2 2292   3.046   0.428   2.652  0.3572  1.1447 -0.1167
  765SOL     OW 2293   3.009   2.960   1.577  0.4757 -0.0561 -0.4565
  765SOL    HW1 2294   3.078   2.982   1.647 -0.5415 -1.5728  0.6260
  765SOL    HW2 2295   2.921   2.944   1.625 -1.0163 -0.3482 -0.5537
  766SOL     OW 2296   1.466   0.065   1.977 -0.0052 -0.5704  0.3315
  766SOL    HW1 2297   1.402   0.139   2.002  1.2469  1.0028 -1.4625
  766SOL    HW2 2298   1.453  -0.014   2.041  4.5109  2.3242  1.5475
  767SOL     OW 2299   1.806   2.729   2.477  0.3487  0.5018 -0.7236
  767SOL    HW1 2300   1.743   2.790   2.531 -0.8422  2.3569  0.0430
  767SOL    HW2 2301   1.894   2.771   2.451 -1.1298 -2.8652  2.5323
  768SOL     OW 2302   2.014   0.481   2.028  0.3345  0.0365  0.1675
  768SOL    HW1 2303   1.930   0.431   1.987 -3.1280 -1.9899 -3.8310
  768SOL    HW2 2304   2.046   0.562   1.975  2.4158 -0.2458 -1.6920
  769SOL     OW 2305   0.531   1.551   2.487  0.1302  0.0289  0.3692
  769SOL    HW1 2306   0.540   1.526   2.586 -0.0727 -1.6860  0.1656
  769SOL    HW2 2307   0.611   1.598   2.445 -1.8051 -0.1229  0.1063
  770SOL     OW 2308   0.473   2.169   2.701  0.0721  0.2593 -0.7928
  770SOL    HW1 2309   0.486   2.173   2.601 -0.4533  1.7417  0.2596
  770SOL    HW2 2310   0.393   2.111   2.715  0.7809 -0.0870 -0.9491
  771SOL     OW 2311   1.884   0.303   3.015  0.0493  0.5854 -0.0893
  771SOL    HW1 2312   1.821   0.277   3.093 -0.3902 -0.8212  0.9285
  771SOL    HW2 2313   1.980   0.276   3.039  0.6071 -1.7788 -2.6961
  772SOL     OW 2314   2.715   3.060   0.024 -0.5431  0.2795  0.2663
  772SOL    HW1 2315   2.758   3.136  -0.026  1.1858  1.1747  1.0401
  772SOL    HW2 2316   2.773   3.021   0.096  1.5516  1.5577 -2.0089
  773SOL     OW 2317   2.752   2.987   2.619 -0.0919  0.0380  0.6300
  773SOL    HW1 2318   2.788   2.892   2.609  0.6268 -0.6329  0.5913
  773SOL    HW2 2319   2.656   2.991   2.639 -0.1760  0.5323 -0.4037
  774SOL     OW 2320   1.744   1.441   2.367  0.2883  0.0079  0.6318
  774SOL    HW1 2321   1.770   1.529   2.415  0.5558  0.6932  2.3197
  774SOL    HW2 2322   1.781   1.363   2.423 -0.8472 -0.7427  1.3901
  775SOL     OW 2323   2.146   2.925   1.789 -0.2376 -0.0040 -0.2405
  775SOL    HW1 2324   2.100   2.974   1.712 -1.8484  1.8931  1.0772
  775SOL    HW2 2325   2.120   2.966   1.877  3.3004 -0.7777 -1.5255
  776SOL     OW 2326   2.470   1.575   0.512 -0.3952 -0.5062  0.1320
  776SOL    HW1 2327   2.563   1.537   0.528  1.2618  2.2734  3.7831
  776SOL    HW2 2328   2.478   1.678   0.525 -0.2625  1.6366  0.3262
  777SOL     OW 2329   0.088   1.809   3.081 -0.1521  0.2423  0.0360
  777SOL    HW1 2330   0.158   1.821   3.157  0.5404 -1.7579  2.1376
  777SOL    HW2 2331   0.108   1.722   3.037  1.2980  1.9744  0.8397
  778SOL     OW 2332   1.272   0.063   2.659 -0.2349  0.6324 -0.0905
  778SOL    HW1 2333   1.354   0.087   2.711 -3.1658 -1.2813 -1.8473
  778SOL    HW2 2334   1.207   0.028   2.724 -0.3535  0.6606 -0.7523
  779SOL     OW 2335   2.835   1.750   1.232  0.0610 -0.3136  0.2650
  779SOL    HW1 2336   2.789   1.693   1.162 -0.2542  1.7863 -3.1188
  779SOL    HW2 2337   2.798   1.731   1.327 -1.8496 -4.2055 -1.0016
  780SOL     OW 2338   1.882   3.087   2.611 -0.7140 -0.3722  0.1540
  780SOL    HW1 2339   1.959   3.047   2.666 -0.4070  1.0126  1.3057
  780SOL    HW2 2340   1.800   3.027   2.615  1.5109  1.6098 -0.2747
  781SOL     OW 2341   0.346   2.433   2.407  0.4456  0.4242  0.1434
  781SOL    HW1 2342   0.313   2.481   2.323 -2.0547  2.1150 -0.2135
  781SOL    HW2 2343   0.310   2.479   2.492  0.5719  3.9344  1.7762
  782SOL     OW 2344   2.806   1.455   2.154 -1.0211 -0.3261  0.2022
  782SOL    HW1 2345   2.710   1.434   2.172  1.2032  3.1125 -2.5922
  782SOL    HW2 2346   2.858   1.479   2.237 -1.6268  3.9343 -0.8603
  783SOL     OW 2347   0.143   1.553   2.940 -0.5368  0.0556 -0.0259
  783SOL    HW1 2348   0.143   1.465   2.989  1.1492  1.8590 -3.9686
  783SOL    HW2 2349   0.101   1.539   2.846 -0.5415  2.8277  0.0789
  784SOL     OW 2350   1.914   0.731   1.670 -0.6654 -0.3335 -0.3241
  784SOL    HW1 2351   1.844   0.800   1.681  0.7330  1.0019 -0.9564
  784SOL    HW2 2352   1.986   0.768   1.603 -1.2437  1.6592  0.8439
  785SOL     OW 2353   2.285   0.892   3.044 -0.0275 -0.3100  0.0988
  785SOL    HW1 2354   2.354   0.835   2.993  0.3209 -2.1733 -1.9178
  785SOL    HW2 2355   2.274   0.868   3.141  0.2660  0.8963  0.9780
  786SOL     OW 2356   2.614   0.535   3.080  0.5166 -0.3896  0.2541
  786SOL    HW1 2357   2.557   0.586   3.147 -0.5765 -1.6070  0.8716
  786SOL    HW2 2358   2.686   0.588   3.035 -0.9479 -1.0990  0.6853
  787SOL     OW 2359   0.240   0.275   2.588  0.4383  0.3557 -0.4646
  787SOL    HW1 2360   0.241   0.283   2.690 -0.8105  1.2626  0.1553
  787SOL    HW2 2361   0.283   0.351   2.539 -2.1216  1.7340 -2.0763
  788SOL     OW 2362   1.964   3.045   1.632  0.6444  0.4059  0.4913
  788SOL    HW1 2363   1.891   3.003   1.574 -1.7329 -2.0398 -0.8497
  788SOL    HW2 2364   1.959   3.148   1.628 -1.6635  0.7036  3.6336
  789SOL     OW 2365   3.051   0.363   2.946 -0.4644 -1.0440  0.2388
  789SOL    HW1 2366   3.062   0.450   3.002  1.9881  0.7592 -0.4398
  789SOL    HW2 2367   2.963   0.317   2.957 -0.8285  2.0369 -1.1679
  790SOL     OW 2368   0.101   1.177   2.303 -0.3381  0.0880  0.1208
  790SOL    HW1 2369   0.027   1.116   2.320  1.4447 -0.6373 -3.3648
  790SOL    HW2 2370   0.090   1.258   2.364 -0.4523  0.9331  0.4249
  791SOL     OW 2371   2.423   1.169   2.694  0.0682  0.0359  0.0646
  791SOL    HW1 2372   2.372   1.228   2.765  1.4485  2.3433 -1.3569
  791SOL    HW2 2373   2.379   1.191   2.604 -0.5001  0.0609 -1.5940
  792SOL     OW 2374   2.392   0.253   2.507  0.5510 -0.7069 -0.2718
  792SOL    HW1 2375   2.334   0.334   2.526  1.1418  0.2598 -0.8838
  792SOL    HW2 2376   2.472   0.238   2.570  0.2843  1.2700 -2.1573
  793SOL     OW 2377   2.513   0.894   2.664  0.0707 -0.0020 -0.2584
  793SOL    HW1 2378   2.470   0.984   2.657  1.3141 -0.4255  1.3877
  793SOL    HW2 2379   2.499   0.850   2.757 -2.5092  0.0784  3.1394
  794SOL     OW 2380   1.164   1.933   2.119 -0.1997 -0.9917  0.0201
  794SOL    HW1 2381   1.202   2.016   2.069  1.0472  0.4756  0.4970
  794SOL    HW2 2382   1.241   1.884   2.163  0.7459 -1.0117 -0.7738
  795SOL     OW 2383   1.791   1.910   2.917 -0.4047  0.2383 -0.0763
  795SOL    HW1 2384   1.833   1.854   2.840 -1.6628  0.1779 -0.2568
  795SOL    HW2 2385   1.721   1.855   2.962  2.4155  0.4675  1.6676
  796SOL     OW 2386   2.603   0.260   2.656 -0.2063 -0.1057  0.2895
  796SOL    HW1 2387   2.649   0.350   2.638 -1.0326 -1.1012  1.9955
  796SOL    HW2 2388   2.593   0.250   2.761  2.4392  0.3257  2.1490
  797SOL     OW 2389   0.706   1.163   0.620  0.6748  0.2961  0.5410
  797SOL    HW1 2390   0.761   1.115   0.553 -2.9383  0.6829 -0.9297
  797SOL    HW2 2391   0.766   1.210   0.684  1.5890 -0.7751 -3.2238
  798SOL     OW 2392   2.196   0.421   1.639 -0.3745  0.5048 -0.2528
  798SOL    HW1 2393   2.231   0.471   1.718 -1.2357  0.0048 -0.7955
  798SOL    HW2 2394   2.169   0.329   1.670 -1.2161  1.2246 -1.6773
  799SOL     OW 2395   2.640   0.236   1.736 -0.1303  0.0292 -0.6532
  799SOL    HW1 2396   2.557   0.196   1.781 -3.4846  0.3602 -1.5427
  799SOL    HW2 2397   2.617   0.294   1.656 -2.2543 -0.3594  0.1465
  800SOL     OW 2398   2.402   2.626   2.792 -0.3826 -0.0976 -0.0923
  800SOL    HW1 2399   2.493   2.656   2.832  3.1729  2.1322  0.2812
  800SOL    HW2 2400   2.359   2.561   2.853  1.4192  1.7341  1.4463
  801SOL     OW 2401   2.935   1.855   0.447  0.2362  0.6640  0.1074
  801SOL    HW1 2402   2.938   1.940   0.386  1.6448  0.9496 -2.3549
  801SOL    HW2 2403   2.880   1.877   0.530 -0.3534  1.0613 -1.3031
  802SOL     OW 2404   2.138   0.499   2.267 -0.4674  0.8090 -0.3860
  802SOL    HW1 2405   2.107   0.513   2.169 -1.0176  0.1424 -1.8586
  802SOL    HW2 2406   2.226   0.553   2.275  2.4438  1.9809 -1.7778
  803SOL     OW 2407   2.601   2.446   0.598 -0.0737 -0.1004 -0.1698
  803SOL    HW1 2408   2.592   2.348   0.627  0.2889  0.2990 -0.0145
  803SOL    HW2 2409   2.659   2.485   0.674  0.0525  1.4382  1.1140
  804SOL     OW 2410   2.694   0.170   0.520  0.1390 -0.0421  0.4479
  804SOL    HW1 2411   2.704   0.203   0.615  0.2963 -0.5965  0.0721
  804SOL    HW2 2412   2.621   0.097   0.512 -2.4664  0.8911 -0.7799
  805SOL     OW 2413   2.888   1.775   2.995  0.6664  0.2427 -0.1528
  805SOL    HW1 2414   2.978   1.803   3.029  0.8662  1.3051  2.3887
  805SOL    HW2 2415   2.897   1.750   2.897  0.6686  1.9662 -1.0960
  806SOL     OW 2416   2.601   0.982   2.300 -0.1145  0.2908  0.1470
  806SOL    HW1 2417   2.557   1.076   2.300 -0.1856 -0.1154  2.1184
  806SOL    HW2 2418   2.563   0.934   2.382 -1.7126  0.6347  0.3891
  807SOL     OW 2419   0.259   0.164   2.035 -0.0208 -0.1744  0.4867
  807SOL    HW1 2420   0.344   0.118   2.008 -3.2976  0.8225 -1.7356
  807SOL    HW2 2421   0.209   0.192   1.952 -0.3306 -2.5108 -1.6077
  808SOL     OW 2422   2.203   0.663   0.695  0.5996 -0.0559 -0.7151
  808SOL    HW1 2423   2.200   0.643   0.794 -0.5111 -3.3852  2.4751
  808SOL    HW2 2424   2.168   0.583   0.645  0.3063  2.5450  2.0857
  809SOL     OW 2425   2.832   1.440   1.729 -0.0060  0.0668 -0.7538
  809SOL    HW1 2426   2.792   1.420   1.640 -1.2434  2.8649 -2.0650
  809SOL    HW2 2427   2.788   1.385   1.802 -0.4688 -0.5268 -0.3828
  810SOL     OW 2428   0.919   0.743   1.250  0.2577 -0.3032 -0.0418
  810SOL    HW1 2429   1.000   0.702   1.296  0.8627 -0.4076  3.1276
  810SOL    HW2 2430   0.833   0.696   1.271 -1.2191 -0.5317 -0.3547
  811SOL     OW 2431   0.324   2.696   1.384  0.6944  0.0837  0.3537
  811SOL    HW1 2432   0.223   2.676   1.373  1.7322  0.5149 -0.7625
  811SOL    HW2 2433   0.371   2.609   1.394 -0.5532  2.2550 -0.2978
  812SOL     OW 2434   2.570   0.445   1.906  0.1073  0.0815 -0.4273
  812SOL    HW1 2435   2.568   0.394   1.998 -0.1692 -1.1458  0.4322
  812SOL    HW2 2436   2.602   0.382   1.834 -1.6278  2.3112 -0.8835
  813SOL     OW 2437   2.040   2.846   2.406 -0.1409 -0.1314  0.3488
  813SOL    HW1 2438   2.072   2.943   2.420  0.5531 -0.2397  0.1269
  813SOL    HW2 2439   2.116   2.787   2.366 -1.1832  0.7515 -2.3098
  814SOL     OW 2440   3.056   1.187   1.841  0.1477 -0.3350 -0.7734
  814SOL    HW1 2441   2.987   1.204   1.915 -0.8907  0.5244  2.3783
  814SOL    HW2 2442   3.143   1.151   1.887  1.5070  0.0100  2.7374
  815SOL     OW 2443   2.676   1.053   0.109  0.3621 -0.0567 -0.4819
  815SOL    HW1 2444   2.757   1.022   0.046  3.0769 -0.1904 -0.3403
  815SOL    HW2 2445   2.641   0.976   0.167  0.5489 -1.2647 -1.9267
  816SOL     OW 2446   2.999   0.331   2.100  0.3264 -0.0874 -0.1203
  816SOL    HW1 2447   2.963   0.275   2.025 -0.1575 -0.4633 -0.2319
  816SOL    HW2 2448   2.926   0.342   2.166 -0.6967 -1.0610 -2.5370
  817SOL     OW 2449   0.133   1.082   2.028 -0.1748 -0.3322  0.0552
  817SOL    HW1 2450   0.109   1.122   2.119  1.0559  1.0275  1.4579
  817SOL    HW2 2451   0.122   0.980   2.032 -2.2168  0.1153 -1.3550
  818SOL     OW 2452   1.808   0.675   0.050  0.3756 -0.3131  0.1203
  818SOL    HW1 2453   1.743   0.616  -0.001  0.8446 -0.4247  1.0075
  818SOL    HW2 2454   1.901   0.693   0.008  0.1614  0.6164  0.2635
  819SOL     OW 2455   3.085   0.403   1.714 -0.2445 -0.1137  0.1132
  819SOL    HW1 2456   3.047   0.473   1.649  1.7894  0.0147  2.7115
  819SOL    HW2 2457   3.014   0.336   1.748  1.4951  0.6409 -1.7875
  820SOL     OW 2458   2.357   1.633   2.158  0.5107 -0.1638  0.1405
  820SOL    HW1 2459   2.340   1.604   2.059  0.9152  0.6996 -2.0028
  820SOL    HW2 2460   2.363   1.736   2.168 -0.7430 -1.1395 -0.2900
  821SOL     OW 2461   0.213   2.080   1.525  0.0984  0.1997 -0.0141
  821SOL    HW1 2462   0.146   2.100   1.602 -0.6307  0.5171  1.6240
  821SOL    HW2 2463   0.167   2.019   1.461 -0.2733  1.8894 -1.7637
  822SOL     OW 2464   2.746   2.939   0.895 -0.4913  0.3675  0.4099
  822SOL    HW1 2465   2.646   2.964   0.892  0.3605 -0.2077 -0.2060
  822SOL    HW2 2466   2.768   2.914   0.990 -0.3969  2.1390 -1.2064
  823SOL     OW 2467   2.356   0.769   1.767  0.0689  1.3392 -0.2621
  823SOL    HW1 2468   2.309   0.752   1.855  1.3974  4.2014  1.7372
  823SOL    HW2 2469   2.455   0.726   1.771  4.6039 -0.6903  1.5801
  824SOL     OW 2470   2.885   1.929   2.278 -0.2603  0.1207 -0.2417
  824SOL    HW1 2471   2.882   2.030   2.307 -2.4935  1.2884 -0.3209
  824SOL    HW2 2472   2.947   1.921   2.195 -0.7588  2.4357  0.7091
  825SOL     OW 2473   2.368   3.095   0.700 -0.1611  0.0495 -0.1773
  825SOL    HW1 2474   2.283   3.051   0.732 -0.3802  1.3726 -2.4719
  825SOL    HW2 2475   2.376   3.192   0.729 -0.1549 -0.2548 -3.8664
  826SOL     OW 2476   0.638   2.731   0.335 -0.1994  0.0195  0.1424
  826SOL    HW1 2477   0.625   2.676   0.246 -0.9150  1.2348 -3.4268
  826SOL    HW2 2478   0.607   2.824   0.314 -0.9319 -0.0030  0.9541
  827SOL     OW 2479   1.940   1.297   2.523 -0.3756 -1.0440  0.2765
  827SOL    HW1 2480   1.909   1.210   2.563  2.2569 -0.4463  1.4013
  827SOL    HW2 2481   1.992   1.274   2.437  0.2757 -0.7285 -2.3769
  828SOL     OW 2482   0.192   0.090   0.823 -0.0297  0.1972  0.0148
  828SOL    HW1 2483   0.266   0.143   0.774  0.0509  1.0909  0.4896
  828SOL    HW2 2484   0.220  -0.010   0.814 -0.5114 -0.6088  0.5010
  829SOL     OW 2485   2.434   0.148   1.030  0.1835  0.0726 -0.0890
  829SOL    HW1 2486   2.489   0.149   1.113  0.6157  1.2551 -0.2727
  829SOL    HW2 2487   2.476   0.221   0.966  0.1334  2.0995 -0.9985
  830SOL     OW 2488   0.542   2.407   1.027  0.3065 -0.4540 -0.0515
  830SOL    HW1 2489   0.637   2.439   1.055  0.7023  0.3955 -0.3674
  830SOL    HW2 2490   0.508   2.436   0.936  2.1066 -0.7425 -2.5199
  831SOL     OW 2491   1.572   0.602   1.017  0.2822  0.0933  0.1000
  831SOL    HW1 2492   1.602   0.510   0.996  0.0587 -2.3035  0.1789
  831SOL    HW2 2493   1.562   0.646   0.926  2.0335  0.0640  1.0233
  832SOL     OW 2494   2.079   2.731   1.395 -0.8361 -0.0171  0.2146
  832SOL    HW1 2495   2.001   2.797   1.405 -0.4652  3.1777  0.0136
  832SOL    HW2 2496   2.033   2.642   1.384 -1.6532  0.0821  0.9158
  833SOL     OW 2497   2.150   2.986   1.305 -0.3375  0.4653  0.0666
  833SOL    HW1 2498   2.205   3.037   1.376 -0.8357  1.1541 -0.2236
  833SOL    HW2 2499   2.132   2.892   1.341 -1.3437  2.2127  0.7328
  834SOL     OW 2500   1.417   2.653   0.277  0.4446  0.0104 -0.1472
  834SOL    HW1 2501   1.441   2.627   0.179 -2.4234  1.4720 -1.6436
  834SOL    HW2 2502   1.454   2.746   0.305  0.3305  1.9772  0.9879
  835SOL     OW 2503   2.154   2.927   0.697  0.4062 -0.4854 -0.0752
  835SOL    HW1 2504   2.240   2.877   0.658  3.4829 -2.2345  0.5686
  835SOL    HW2 2505   2.109   2.863   0.762  0.3453  0.6139 -1.2675
  836SOL     OW 2506   1.973   2.324   1.211  0.1402 -0.0112  0.9849
  836SOL    HW1 2507   1.875   2.297   1.230 -1.2231  1.8476  1.4505
  836SOL    HW2 2508   2.026   2.337   1.296  0.6992 -1.1469  0.9204
  837SOL     OW 2509   3.006   3.049   1.055  0.2633  0.2452 -0.1793
  837SOL    HW1 2510   2.939   3.122   1.080 -0.7462 -1.3911  1.3598
  837SOL    HW2 2511   2.995   3.028   0.958  3.8658 -1.8895 -1.3011
  838SOL     OW 2512   1.883   1.869   0.775  0.3603 -0.1004  0.5782
  838SOL    HW1 2513   1.956   1.833   0.718 -0.1877  1.0771 -1.3930
  838SOL    HW2 2514   1.886   1.972   0.775  1.1502  1.0099  0.6731
  839SOL     OW 2515   1.016   2.689   1.089 -0.1333 -0.4169 -0.3982
  839SOL    HW1 2516   1.013   2.693   1.191  0.1729 -2.6987  0.9918
  839SOL    HW2 2517   1.094   2.635   1.059 -0.5127  2.0589  0.2541
  840SOL     OW 2518   2.766   2.249   1.391 -0.0624 -0.0022  0.5035
  840SOL    HW1 2519   2.663   2.255   1.379  1.4994  1.2258  0.9153
  840SOL    HW2 2520   2.817   2.296   1.318 -0.6930  1.8822  1.2245
  841SOL     OW 2521   1.360   2.965   1.020 -0.4240 -0.3764  0.4022
  841SOL    HW1 2522   1.348   2.885   0.958  1.6358 -1.8786 -0.0477
  841SOL    HW2 2523   1.393   3.048   0.978 -1.6249 -1.8304  1.7774
  842SOL     OW 2524   2.832   2.373   1.633 -0.9408  0.1268  0.7899
  842SOL    HW1 2525   2.801   2.289   1.583 -0.6055 -0.5076 -0.5578
  842SOL    HW2 2526   2.774   2.451   1.603  2.2782 -0.6640  0.4483
  843SOL     OW 2527   0.414   2.220   1.408 -0.1365 -0.8280 -0.1931
  843SOL    HW1 2528   0.346   2.152   1.441  0.0668 -0.0921  0.8977
  843SOL    HW2 2529   0.505   2.177   1.390  0.9162  0.6966 -1.6890
  844SOL     OW 2530   2.930   2.636   1.394  0.1601 -0.0740  0.3010
  844SOL    HW1 2531   3.001   2.675   1.455  0.6693  1.7233  0.6764
  844SOL    HW2 2532   2.841   2.630   1.446  1.8444 -2.4804  1.4817
  845SOL     OW 2533   2.590   2.186   3.057 -0.1580 -0.5934  0.1040
  845SOL    HW1 2534   2.593   2.212   2.958 -0.6949  0.5971 -1.2803
  845SOL    HW2 2535   2.614   2.085   3.077  2.1211 -0.1770  0.0924
  846SOL     OW 2536   0.966   0.364   0.303  0.2470  0.9070  0.2949
  846SOL    HW1 2537   1.021   0.431   0.357 -1.0031  3.0343 -0.4918
  846SOL    HW2 2538   0.923   0.291   0.358  0.0269  0.3147 -0.2295
  847SOL     OW 2539   2.614   2.266   2.804 -0.1739 -0.5260  0.6474
  847SOL    HW1 2540   2.699   2.218   2.773  0.2853 -2.3263  0.3697
  847SOL    HW2 2541   2.540   2.233   2.739 -1.2896  0.9066 -1.2017
  848SOL     OW 2542   1.513   2.523   0.684 -0.6601 -1.2093 -0.5147
  848SOL    HW1 2543   1.416   2.555   0.680 -0.1354  2.5018  0.1956
  848SOL    HW2 2544   1.546   2.487   0.598 -0.3466  0.5286  0.9366
  849SOL     OW 2545   2.551   2.943   2.931 -0.3226  0.6778  0.1326
  849SOL    HW1 2546   2.574   2.847   2.953 -0.1786 -0.3800 -0.8913
  849SOL    HW2 2547   2.628   3.000   2.973  1.4764 -1.1140  2.2367
  850SOL     OW 2548   1.630   2.682   1.305  0.2390  0.1764  0.1504
  850SOL    HW1 2549   1.539   2.704   1.264  0.9058 -1.9039 -1.1003
  850SOL    HW2 2550   1.631   2.593   1.352 -0.3728  0.7866 -0.3694
  851SOL     OW 2551   2.243   2.454   0.053  0.5209 -0.1937  0.3320
  851SOL    HW1 2552   2.211   2.358   0.070 -0.0616 -2.1639  2.1466
  851SOL    HW2 2553   2.344   2.458   0.025  1.8855 -1.8901 -0.8407
  852SOL     OW 2554   0.293   0.007   2.652 -0.1987  0.8172  0.3495
  852SOL    HW1 2555   0.284   0.106   2.651  1.8225 -0.1818 -1.6375
  852SOL    HW2 2556   0.364  -0.020   2.725  0.5208 -1.9047 -0.0991
  853SOL     OW 2557   2.552   1.958   1.020 -0.1579  0.4803  0.4033
  853SOL    HW1 2558   2.577   1.951   1.118  1.1635 -0.1659  0.7254
  853SOL    HW2 2559   2.454   1.969   1.003  0.3255  0.4912  0.6503
  854SOL     OW 2560   1.988   2.491   1.022  0.2030 -0.4609 -0.2233
  854SOL    HW1 2561   1.917   2.566   1.042 -1.2891  1.2605 -0.5468
  854SOL    HW2 2562   1.978   2.425   1.100 -2.2589 -0.4208  1.5356
  855SOL     OW 2563   2.470   3.022   0.195 -0.7203 -0.6664  0.2158
  855SOL    HW1 2564   2.564   3.018   0.153 -0.0605 -2.4960  1.6373
  855SOL    HW2 2565   2.469   3.066   0.287 -1.5133  0.6915 -0.9478
  856SOL     OW 2566   1.959   2.016   3.095 -0.2698 -0.9533 -0.3202
  856SOL    HW1 2567   1.926   1.947   3.164  0.4399 -2.5555  3.3697
  856SOL    HW2 2568   1.928   1.989   3.000  0.8470 -1.5286 -2.0342
  857SOL     OW 2569   2.637   1.866   0.237  0.2220 -0.3813  0.2172
  857SOL    HW1 2570   2.541   1.867   0.272 -0.4446 -1.6876 -1.6954
  857SOL    HW2 2571   2.692   1.787   0.272  0.6596  0.3589 -1.0337
  858SOL     OW 2572   0.263   2.895   0.902  0.1419  0.6345 -0.5693
  858SOL    HW1 2573   0.339   2.920   0.838  1.9346 -0.2892  1.4615
  858SOL    HW2 2574   0.243   2.795   0.911 -0.9813  2.3889  1.0168
  859SOL     OW 2575   1.026   0.204   0.696  0.1703 -0.2122 -0.2775
  859SOL    HW1 2576   1.075   0.163   0.614 -1.4437  1.5838 -1.2742
  859SOL    HW2 2577   0.971   0.134   0.747 -0.5998  2.7035  1.6271
  860SOL     OW 2578   2.272   2.795   2.639  0.0318  0.1310  0.0646
  860SOL    HW1 2579   2.329   2.737   2.701  2.5688  1.1249 -2.6301
  860SOL    HW2 2580   2.269   2.747   2.551  1.2000  1.4348  1.8690
  861SOL     OW 2581   1.469   1.583   1.330 -0.5406  0.4354  0.1736
  861SOL    HW1 2582   1.371   1.556   1.326 -1.0411  2.1135  1.5374
  861SOL    HW2 2583   1.524   1.565   1.250  1.9175  1.1130  1.0106
  862SOL     OW 2584   2.032   1.561   0.450  0.1137 -0.0467 -0.1282
  862SOL    HW1 2585   2.041   1.477   0.501 -1.5490  1.7882  0.0304
  862SOL    HW2 2586   1.983   1.553   0.362 -0.4409  1.7462  0.6407
  863SOL     OW 2587   2.222   2.207   0.857 -0.8761  0.0661  0.3229
  863SOL    HW1 2588   2.261   2.292   0.899  0.4038 -0.0551  0.7861
  863SOL    HW2 2589   2.131   2.227   0.812  0.3524  1.7561 -1.2710
  864SOL     OW 2590   3.050   2.309   0.516  0.1715 -0.3729  0.5009
  864SOL    HW1 2591   3.103   2.237   0.567 -0.2873 -0.0015  2.3866
  864SOL    HW2 2592   3.095   2.320   0.428 -0.5948 -0.3029  1.2912
  865SOL     OW 2593   2.618   2.676   2.962  0.0417 -0.2194 -0.4807
  865SOL    HW1 2594   2.580   2.592   3.004  2.6668  3.3940  1.3350
  865SOL    HW2 2595   2.716   2.680   2.973  1.5266 -0.6686  2.5205
  866SOL     OW 2596   2.606   2.835   0.493 -0.0572 -0.3144 -0.4653
  866SOL    HW1 2597   2.523   2.777   0.495  2.2170  0.5668 -0.3422
  866SOL    HW2 2598   2.660   2.815   0.580 -2.2684 -0.4705  2.8709
  867SOL     OW 2599   2.586   1.511   2.540 -0.0647 -0.4462  0.2194
  867SOL    HW1 2600   2.496   1.549   2.568 -0.5309  0.2854  3.2201
  867SOL    HW2 2601   2.615   1.436   2.597 -0.2297  0.4758 -4.2606
  868SOL     OW 2602   2.504   3.094   0.468 -0.5283  0.1675  0.3085
  868SOL    HW1 2603   2.560   3.009   0.465 -0.9444  0.9564  2.7019
  868SOL    HW2 2604   2.445   3.094   0.550  2.4250 -1.4513 -1.3840
  869SOL     OW 2605   2.270   2.496   0.737 -0.2446 -0.3382 -0.9921
  869SOL    HW1 2606   2.366   2.528   0.717 -2.3124 -0.2046 -2.6709
  869SOL    HW2 2607   2.228   2.543   0.816  2.1413 -2.4198 -1.2818
  870SOL     OW 2608   2.385   0.279   0.740 -0.3481  0.1643 -0.3297
  870SOL    HW1 2609   2.465   0.318   0.790 -0.7729 -3.2185 -2.5212
  870SOL    HW2 2610   2.297   0.303   0.786 -1.9394 -0.5740 -0.1437
  871SOL     OW 2611   0.988   2.427   0.125 -0.3724  0.0285 -0.2522
  871SOL    HW1 2612   0.939   2.472   0.050  2.1755 -0.6948  1.3945
  871SOL    HW2 2613   1.036   2.495   0.184 -0.3462 -0.2553 -0.7214
  872SOL     OW 2614   2.494   2.944   1.535 -0.4538 -0.2298 -0.0789
  872SOL    HW1 2615   2.430   2.864   1.538  0.4286 -0.4071 -2.2760
  872SOL    HW2 2616   2.545   2.946   1.452 -2.1887 -1.9949  1.1188
  873SOL     OW 2617   2.488   2.303   1.355 -0.5384  0.1358 -0.6060
  873SOL    HW1 2618   2.479   2.403   1.335  1.9676  0.5321  0.9461
  873SOL    HW2 2619   2.427   2.243   1.297 -1.4674  0.0244 -0.8828
  874SOL     OW 2620   0.007   2.654   1.135  0.5561  0.0997 -0.5018
  874SOL    HW1 2621   0.032   2.573   1.191  0.2375 -0.9386 -0.0978
  874SOL    HW2 2622   0.011   2.738   1.193  1.6000  1.1585  1.6881
  875SOL     OW 2623   2.501   2.452   1.886 -0.2924  0.1169  0.0241
  875SOL    HW1 2624   2.599   2.436   1.913 -1.7840 -0.9355 -0.7095
  875SOL    HW2 2625   2.468   2.359   1.857 -0.0845  1.7621 -1.4717
  876SOL     OW 2626   2.397   1.738   0.813 -0.6526  0.2218 -0.0104
  876SOL    HW1 2627   2.378   1.825   0.862  2.1692 -0.0959  1.0661
  876SOL    HW2 2628   2.395   1.751   0.710  0.7181 -0.9821 -3.7237
  877SOL     OW 2629   0.528   2.228   0.042 -0.0708 -0.2803 -0.1440
  877SOL    HW1 2630   0.526   2.124   0.053 -0.0840 -2.1267 -0.2310
  877SOL    HW2 2631   0.549   2.280   0.130 -2.0373 -0.4801  0.6540
  878SOL     OW 2632   1.670   0.353   1.032 -0.0901  0.1994 -0.2138
  878SOL    HW1 2633   1.664   0.260   0.992  2.0327  0.0606 -0.5114
  878SOL    HW2 2634   1.628   0.350   1.129 -2.4729  0.5528  1.0308
  879SOL     OW 2635   1.261   0.341   0.766 -0.6480 -0.0807  0.1433
  879SOL    HW1 2636   1.254   0.376   0.862  0.7073 -0.1107 -0.2798
  879SOL    HW2 2637   1.173   0.297   0.743 -1.7074  0.0384  2.4781
  880SOL     OW 2638   2.898   0.173   0.289 -0.3095  0.6436  0.6352
  880SOL    HW1 2639   2.817   0.169   0.350  0.5214 -2.0172  3.2692
  880SOL    HW2 2640   2.873   0.233   0.208 -0.3491 -0.7249  1.8414
  881SOL     OW 2641   1.948   2.849   0.458  0.5113  0.2347 -0.5549
  881SOL    HW1 2642   1.960   2.947   0.453 -1.1931 -0.5502  0.4202
  881SOL    HW2 2643   2.022   2.802   0.508  1.0867  1.2680 -2.8629
  882SOL     OW 2644   3.004   2.273   2.018  0.0098 -0.1588  0.5889
  882SOL    HW1 2645   3.042   2.346   2.080  0.9756 -1.7742 -0.3808
  882SOL    HW2 2646   2.933   2.297   1.952  0.4736 -1.7258 -0.8650
  883SOL     OW 2647   1.589   0.075   0.397 -0.4147 -0.2572 -0.2092
  883SOL    HW1 2648   1.657   0.131   0.447 -0.3207  0.8660 -1.4555
  883SOL    HW2 2649   1.549   0.127   0.321  2.2647  0.1545  1.7099
  884SOL     OW 2650   1.904   1.990   0.422 -0.0713  0.2365  0.3868
  884SOL    HW1 2651   1.978   1.992   0.489  1.6760  4.7501 -0.8418
  884SOL    HW2 2652   1.891   2.078   0.380  0.2856 -0.7152 -1.3255
  885SOL     OW 2653   2.444   2.211   1.784  0.0842 -0.0746  0.4564
  885SOL    HW1 2654   2.401   2.186   1.694  0.4309  0.7759 -1.0270
  885SOL    HW2 2655   2.530   2.155   1.802 -0.7226 -1.1339  1.0943
  886SOL     OW 2656   2.416   1.949   1.311 -0.4950 -0.5589  0.0330
  886SOL    HW1 2657   2.377   2.030   1.261 -1.7722 -1.5662  2.3805
  886SOL    HW2 2658   2.517   1.945   1.307 -1.2897 -0.9123  0.2662
  887SOL     OW 2659   2.852   2.030   0.221  0.4260 -0.7633 -0.5219
  887SOL    HW1 2660   2.764   1.981   0.212  0.8720  1.6090 -1.5545
  887SOL    HW2 2661   2.842   2.120   0.271  0.8193  5.1131  0.5266
  888SOL     OW 2662   1.715   0.144   1.859 -0.0608  0.3456 -0.4270
  888SOL    HW1 2663   1.765   0.058   1.828 -1.6296  1.2943 -1.3590
  888SOL    HW2 2664   1.622   0.114   1.895 -0.3770 -2.0976  0.7852
  889SOL     OW 2665   1.880   2.254   0.287 -0.1859  0.2211  0.6962
  889SOL    HW1 2666   1.817   2.327   0.311 -2.3350 -0.4313 -1.0956
  889SOL    HW2 2667   1.865   2.226   0.188  0.2176  0.2691  0.8730
  890SOL     OW 2668   0.111   2.055   2.988  0.0579 -0.7713  0.0260
  890SOL    HW1 2669   0.013   2.084   2.994 -0.0741  0.2251 -0.3182
  890SOL    HW2 2670   0.128   1.959   3.026  0.9004 -0.0471 -3.5343
  891SOL     OW 2671   2.203   2.637   0.962 -0.0277 -0.1361  0.0152
  891SOL    HW1 2672   2.219   2.726   1.007 -0.0782 -0.6224  0.2436
  891SOL    HW2 2673   2.112   2.594   0.987  0.3180 -1.4750 -1.7501
  892SOL     OW 2674   1.254   2.304   0.951  0.4522  0.1927 -0.4328
  892SOL    HW1 2675   1.344   2.284   0.907 -3.2303  1.3696  0.1403
  892SOL    HW2 2676   1.187   2.266   0.891  2.0850  1.4731  0.2353
  893SOL     OW 2677   2.700   2.639   1.528 -0.1139 -0.5367 -0.3528
  893SOL    HW1 2678   2.657   2.665   1.616 -1.3939 -2.4594  0.3046
  893SOL    HW2 2679   2.625   2.627   1.462 -0.8207 -1.0550 -2.0658
  894SOL     OW 2680   2.877   2.561   0.354 -0.5307  0.6169  0.1162
  894SOL    HW1 2681   2.837   2.591   0.443  0.5064  1.1529  0.1286
  894SOL    HW2 2682   2.825   2.610   0.279  0.1739  1.3700 -1.2163
  895SOL     OW 2683   1.604   1.856   0.050  0.3927  0.0142  0.0382
  895SOL    HW1 2684   1.640   1.782   0.105 -1.1350  0.5265 -3.2693
  895SOL    HW2 2685   1.524   1.817   0.000  2.1523  2.5287  1.7110
  896SOL     OW 2686   2.443   0.108   1.911  0.0809 -0.3440  0.0815
  896SOL    HW1 2687   2.519   0.049   1.944  2.8302  1.4429 -3.3902
  896SOL    HW2 2688   2.392   0.157   1.986  0.9264  0.4204  3.3396
  897SOL     OW 2689   0.174   2.102   2.377 -0.3360 -1.3934  0.3754
  897SOL    HW1 2690   0.109   2.067   2.443  1.1024  2.1816 -1.2005
  897SOL    HW2 2691   0.207   2.196   2.399 -0.7275  0.8021 -3.4707
  898SOL     OW 2692   1.371   0.254   1.650 -0.2297  0.4064  0.3421
  898SOL    HW1 2693   1.375   0.215   1.746  1.1946 -2.4660  2.4586
  898SOL    HW2 2694   1.327   0.344   1.658 -0.5610 -0.3287  0.4082
  899SOL     OW 2695   2.737   2.955   1.662 -0.2380 -0.2533  0.3666
  899SOL    HW1 2696   2.644   2.934   1.632  1.8245  1.9930  0.2967
  899SOL    HW2 2697   2.730   2.997   1.753 -0.6105 -2.8156 -0.0101
  900SOL     OW 2698   1.903   2.570   0.522  0.3207 -0.4240 -0.1251
  900SOL    HW1 2699   1.902   2.522   0.616  0.3367 -0.2287  1.2393
  900SOL    HW2 2700   2.000   2.579   0.496 -1.9608  1.0746  0.9521
  901SOL     OW 2701   2.333   0.272   1.417  0.3999 -0.0807 -0.0247
  901SOL    HW1 2702   2.322   0.172   1.442 -1.3000 -1.8458 -1.8070
  901SOL    HW2 2703   2.246   0.324   1.439  0.0443  0.8596 -0.4425
  902SOL     OW 2704   2.486   2.712   1.284  0.0643 -0.3161  0.6263
  902SOL    HW1 2705   2.510   2.811   1.269 -0.5150  1.2036 -2.2236
  902SOL    HW2 2706   2.401   2.691   1.338 -0.0884  3.0968  2.2892
  903SOL     OW 2707   2.742   2.771   1.985  0.3499  0.8738  0.5360
  903SOL    HW1 2708   2.654   2.725   1.978  0.1183  1.1343 -0.3741
  903SOL    HW2 2709   2.819   2.719   1.944  2.4254  2.3457  1.5014
  904SOL     OW 2710   2.093   2.335   0.632 -0.3151  0.2736 -0.2101
  904SOL    HW1 2711   2.175   2.388   0.657  3.1462 -1.5414 -1.0880
  904SOL    HW2 2712   2.094   2.320   0.534 -2.9635 -1.3185  2.8561
  905SOL     OW 2713   2.139   0.805   1.115  0.2115  0.6803 -0.1303
  905SOL    HW1 2714   2.048   0.848   1.094 -0.3853 -1.0859  0.2347
  905SOL    HW2 2715   2.139   0.702   1.118 -0.8138 -3.5784 -0.1326
  906SOL     OW 2716   0.629   2.451   1.659 -0.1131  0.5443  0.0193
  906SOL    HW1 2717   0.616   2.539   1.708 -0.4064 -0.7624 -1.4326
  906SOL    HW2 2718   0.669   2.383   1.724  0.2004  1.4788  1.1261
  907SOL     OW 2719   1.827   0.928   1.105  0.1521 -0.3921  0.4292
  907SOL    HW1 2720   1.756   0.883   1.161  1.7519 -0.2652 -2.3877
  907SOL    HW2 2721   1.806   0.918   1.005 -0.9763 -2.0306 -0.9518
  908SOL     OW 2722   2.619   2.695   2.320  0.4647  0.0828 -0.5693
  908SOL    HW1 2723   2.605   2.613   2.383 -3.1082  0.5648  1.8407
  908SOL    HW2 2724   2.562   2.678   2.237 -1.1634 -0.3202 -1.4410
  909SOL     OW 2725   2.133   0.263   0.824  0.1723  0.1827  0.0388
  909SOL    HW1 2726   2.078   0.211   0.755  1.5452 -1.1814 -1.0480
  909SOL    HW2 2727   2.116   0.228   0.917 -1.7568  1.9977  0.4081
  910SOL     OW 2728   2.345   2.394   1.014 -0.0768 -0.0805  0.8332
  910SOL    HW1 2729   2.445   2.404   1.021 -0.3270 -1.4892 -0.7872
  910SOL    HW2 2730   2.299   2.488   0.999 -2.2128  1.5545  1.0723
  911SOL     OW 2731   1.813   2.683   1.085  0.1515  0.0586 -0.1383
  911SOL    HW1 2732   1.863   2.767   1.090 -4.1316 -3.5508  1.0360
  911SOL    HW2 2733   1.760   2.663   1.171 -0.6357  0.1526  1.9601
  912SOL     OW 2734   0.181   2.179   0.654  0.4004 -0.0740  0.0947
  912SOL    HW1 2735   0.197   2.160   0.556 -0.0862  0.3389 -1.4112
  912SOL    HW2 2736   0.161   2.094   0.706  0.1566  0.3820 -1.3194
  913SOL     OW 2737   2.490   1.114   0.871  0.2648  0.3366 -0.4870
  913SOL    HW1 2738   2.434   1.073   0.789 -0.4570 -2.2613 -1.5463
  913SOL    HW2 2739   2.509   1.035   0.933  1.6778 -2.8223 -2.2608
  914SOL     OW 2740   1.175   1.644   2.106  0.1847 -0.4488 -0.4790
  914SOL    HW1 2741   1.156   1.624   2.203  1.3211 -0.7894 -0.7823
  914SOL    HW2 2742   1.180   1.740   2.088  1.7001 -4.2452  0.6583
  915SOL     OW 2743   2.074   3.092   0.498 -0.0712  0.1269 -0.6293
  915SOL    HW1 2744   2.138   3.164   0.472  1.7082 -0.6486  1.5858
  915SOL    HW2 2745   2.116   3.032   0.568  1.2489 -3.6588 -3.5018
  916SOL     OW 2746   1.470   2.212   2.188  0.1838 -0.5184  0.6330
  916SOL    HW1 2747   1.525   2.298   2.183  1.1920  0.1726  1.8284
  916SOL    HW2 2748   1.400   2.212   2.264 -2.7257 -0.9139  0.6479
  917SOL     OW 2749   2.076   2.244   2.512 -0.5816 -0.0511 -1.0104
  917SOL    HW1 2750   2.066   2.173   2.583  0.8310  1.3636  0.9756
  917SOL    HW2 2751   1.991   2.250   2.457 -0.4237 -0.1091  0.8157
  918SOL     OW 2752   2.787   1.511   3.035 -0.6083  0.0363 -0.2541
  918SOL    HW1 2753   2.684   1.528   3.033 -1.4410  0.4917 -0.6306
  918SOL    HW2 2754   2.838   1.596   3.000  4.4504  4.0696 -0.0745
  919SOL     OW 2755   0.681   2.372   2.472  0.6740  0.7612 -0.3309
  919SOL    HW1 2756   0.654   2.461   2.432 -2.3706  1.1342  0.1710
  919SOL    HW2 2757   0.615   2.298   2.454 -1.9415 -1.0625  0.8402
  920SOL     OW 2758   2.156   2.200   0.058 -0.1322  0.4516 -0.0254
  920SOL    HW1 2759   2.218   2.122   0.079 -0.1102  1.0256  1.7633
  920SOL    HW2 2760   2.069   2.170   0.017  0.2144  2.6899 -0.8322
  921SOL     OW 2761   2.220   1.796   2.696  0.1360  0.2568 -0.0960
  921SOL    HW1 2762   2.239   1.864   2.769 -1.9601 -0.0613  3.2994
  921SOL    HW2 2763   2.212   1.838   2.603 -0.0792  1.3185  0.4086
  922SOL     OW 2764   2.101   2.676   0.109  0.0210 -0.6829  0.0383
  922SOL    HW1 2765   2.143   2.582   0.096  2.4893 -0.0567 -0.0855
  922SOL    HW2 2766   2.004   2.682   0.072 -1.2665  0.5844  1.1476
  923SOL     OW 2767   2.596   2.976   1.248  0.3955 -0.0482  0.3277
  923SOL    HW1 2768   2.555   3.069   1.268  0.8862  0.8602 -0.9933
  923SOL    HW2 2769   2.685   2.983   1.199  0.5336  4.1175 -2.8907
  924SOL     OW 2770   2.052   1.260   2.229  0.4334  0.7057  0.0795
  924SOL    HW1 2771   1.976   1.197   2.214 -0.9791  1.4008 -0.2031
  924SOL    HW2 2772   2.095   1.291   2.140 -0.2006 -1.4099  0.3555
  925SOL     OW 2773   2.260   2.668   2.390  0.0810  0.6592 -0.0351
  925SOL    HW1 2774   2.311   2.681   2.300  1.5894 -0.6505 -1.1876
  925SOL    HW2 2775   2.276   2.579   2.434 -0.5512  0.2890 -0.8343
  926SOL     OW 2776   0.784   1.672   2.201  1.0868 -0.1577  0.4987
  926SOL    HW1 2777   0.814   1.599   2.266  0.1088 -0.2697 -1.9932
  926SOL    HW2 2778   0.775   1.636   2.109 -1.2461  0.4068 -1.5578
  927SOL     OW 2779   2.092   1.747   0.627 -0.0191 -0.1922  0.0786
  927SOL    HW1 2780   2.181   1.710   0.654 -2.8265  2.9293  1.6637
  927SOL    HW2 2781   2.046   1.684   0.562 -1.0121  0.3499 -0.6783
  928SOL     OW 2782   2.491   1.546   1.810  0.8612 -0.7829  0.2686
  928SOL    HW1 2783   2.479   1.554   1.709 -3.5792 -5.5973  1.3470
  928SOL    HW2 2784   2.400   1.519   1.851 -1.8870  0.1765  1.5190
  929SOL     OW 2785   2.859   2.216   0.763 -0.2440  0.2605 -0.1939
  929SOL    HW1 2786   2.785   2.244   0.825 -0.2613  0.6404 -0.0396
  929SOL    HW2 2787   2.948   2.234   0.808  2.0554 -1.1826  0.0376
  930SOL     OW 2788   1.401   1.898   1.830  0.2371 -0.5434 -0.3765
  930SOL    HW1 2789   1.388   1.956   1.914  0.1509  2.2996  2.4395
  930SOL    HW2 2790   1.313   1.918   1.778  2.5361 -0.5877 -0.7834
  931SOL     OW 2791   2.438   2.125   2.632  0.1342 -0.0233 -0.4461
  931SOL    HW1 2792   2.390   2.148   2.543  1.4936  0.6147 -2.9759
  931SOL    HW2 2793   2.372   2.124   2.711  0.9070  1.0109  0.5366
  932SOL     OW 2794   1.966   2.530   1.954 -0.2006 -0.4570  0.2090
  932SOL    HW1 2795   1.970   2.430   1.967  1.9918  1.1276 -0.4306
  932SOL    HW2 2796   1.978   2.583   2.040  2.8450 -1.4720 -0.3282
  933SOL     OW 2797   2.195   1.891   2.443  0.1110 -0.5426 -0.6145
  933SOL    HW1 2798   2.130   1.869   2.372  3.5377 -0.7931  1.2973
  933SOL    HW2 2799   2.251   1.973   2.414  3.3612  3.0414 -1.9362
  934SOL     OW 2800   2.753   1.728   2.527 -0.2762  0.3714  0.1402
  934SOL    HW1 2801   2.729   1.829   2.531  0.8930 -0.2236 -0.4441
  934SOL    HW2 2802   2.681   1.664   2.499 -1.1400  0.5119  0.3022
  935SOL     OW 2803   2.284   1.956   0.933  0.2487  0.3909  0.1063
  935SOL    HW1 2804   2.264   2.050   0.901 -0.8771 -0.1849 -2.9035
  935SOL    HW2 2805   2.202   1.917   0.966  2.8273  1.9146 -0.9760
  936SOL     OW 2806   2.987   2.363   2.651 -0.0245 -0.8462  0.0092
  936SOL    HW1 2807   2.916   2.422   2.691  0.5409 -0.7846 -1.5504
  936SOL    HW2 2808   2.958   2.343   2.554  1.8653  0.2212  0.4768
  937SOL     OW 2809   2.353   2.465   2.547 -0.2139 -0.5929 -0.0150
  937SOL    HW1 2810   2.292   2.388   2.569 -0.0109 -0.1486 -2.1404
  937SOL    HW2 2811   2.379   2.522   2.631 -0.8615 -2.1155 -0.2270
  938SOL     OW 2812   1.987   2.684   2.156 -0.5436 -0.0482  0.6913
  938SOL    HW1 2813   1.935   2.770   2.142  1.7096  1.0576  0.1383
  938SOL    HW2 2814   1.981   2.643   2.246 -0.3542  0.3303 -2.1433
  939SOL     OW 2815   0.398   1.861   1.897 -0.1530 -0.7489  0.2577
  939SOL    HW1 2816   0.417   1.790   1.825  1.2700 -0.6520 -0.7582
  939SOL    HW2 2817   0.483   1.886   1.946  0.7392 -1.9107  1.1309
  940SOL     OW 2818   1.615   2.066   0.220  0.4746  0.0420  0.5246
  940SOL    HW1 2819   1.628   1.986   0.158  0.7384 -1.5300  0.2712
  940SOL    HW2 2820   1.614   2.044   0.319  1.1511 -1.3310 -2.2714
  941SOL     OW 2821   2.742   2.498   2.705  0.4247 -0.0005 -0.2617
  941SOL    HW1 2822   2.702   2.466   2.619  0.0139 -1.5387  0.7246
  941SOL    HW2 2823   2.705   2.440   2.781  1.4668  0.2484  2.0617
  942SOL     OW 2824   2.861   2.133   2.724 -0.3012  0.2635  0.3246
  942SOL    HW1 2825   2.922   2.202   2.689 -1.7910  2.4627 -1.3967
  942SOL    HW2 2826   2.880   2.117   2.821  0.6563 -0.1973  0.0919
  943SOL     OW 2827   0.041   1.490   2.676  0.3462  0.1551 -0.4165
  943SOL    HW1 2828   0.090   1.470   2.590  0.3113 -0.4416  1.3508
  943SOL    HW2 2829   0.007   1.405   2.723  0.8408 -2.5350 -0.3116
  944SOL     OW 2830   2.387   1.900   2.172  0.5069 -0.2843 -0.2331
  944SOL    HW1 2831   2.360   1.983   2.219 -0.9258  1.2584  1.8060
  944SOL    HW2 2832   2.469   1.911   2.111  0.8046 -0.7014 -0.4152
  945SOL     OW 2833   2.236   2.133   1.939  0.3139 -0.1212 -0.5090
  945SOL    HW1 2834   2.180   2.064   1.888 -2.1395  2.2239 -0.0329
  945SOL    HW2 2835   2.312   2.159   1.876  0.8624 -2.6496 -1.1966
  946SOL     OW 2836   2.396   2.213   2.138 -0.3752 -0.0057  0.1558
  946SOL    HW1 2837   2.341   2.167   2.064 -0.9645 -1.8061 -0.7176
  946SOL    HW2 2838   2.489   2.231   2.096 -1.0901 -1.5376 -0.4445
  947SOL     OW 2839   2.542   2.972   2.383 -0.1568  0.1353  0.2567
  947SOL    HW1 2840   2.557   2.871   2.374  0.2885 -0.1623  2.1339
  947SOL    HW2 2841   2.536   3.008   2.481  1.7832  1.2449  1.0141
  948SOL     OW 2842   1.526   2.523   2.770  0.1256  0.2498 -0.2609
  948SOL    HW1 2843   1.614   2.486   2.733 -1.8280 -1.8377  0.1626
  948SOL    HW2 2844   1.540   2.559   2.867 -1.0720  0.3111  1.3438
  949SOL     OW 2845   0.243   2.040   2.744  0.1350 -0.6236  0.3815
  949SOL    HW1 2846   0.184   2.110   2.698  0.7340 -0.6365 -0.5387
  949SOL    HW2 2847   0.210   2.032   2.841  1.1324  0.5806 -1.4493
  950SOL     OW 2848   2.329   2.770   0.565  0.0860  0.2027 -0.2315
  950SOL    HW1 2849   2.384   2.717   0.633  0.2409  0.3080  0.1558
  950SOL    HW2 2850   2.267   2.710   0.508 -4.5622 -2.4947  2.1697
  951SOL     OW 2851   2.669   2.000   2.535 -0.1249  0.6645 -0.1763
  951SOL    HW1 2852   2.738   2.047   2.592  1.5284 -0.0551 -1.5505
  951SOL    HW2 2853   2.578   2.011   2.582 -0.1948  0.7449  1.5231
  952SOL     OW 2854   0.427   2.775   0.063  0.0704 -0.2455 -0.2829
  952SOL    HW1 2855   0.501   2.704   0.055  1.9414  1.2399 -0.4752
  952SOL    HW2 2856   0.334   2.744   0.091  1.6476 -0.5369 -1.4063
  953SOL     OW 2857   2.282   1.941   0.037 -0.3888 -0.2774 -0.3191
  953SOL    HW1 2858   2.196   1.921  -0.013  3.2996  1.6668  0.7689
  953SOL    HW2 2859   2.346   1.860   0.032 -1.8590 -2.6803 -0.7842
  954SOL     OW 2860   0.142   2.720   2.474 -0.2570  0.1585 -0.1830
  954SOL    HW1 2861   0.051   2.710   2.431  1.4139  0.5635 -0.8543
  954SOL    HW2 2862   0.187   2.809   2.448  0.0010  0.6571 -1.4471
  955SOL     OW 2863   1.787   1.055   0.022 -0.1628  0.3930 -0.0956
  955SOL    HW1 2864   1.825   1.033  -0.071 -2.4721 -0.0241  1.5978
  955SOL    HW2 2865   1.860   1.065   0.089 -2.6035  1.4367 -3.5114
  956SOL     OW 2866   0.281   2.384   0.287 -0.0172 -0.4727  0.3683
  956SOL    HW1 2867   0.205   2.452   0.294  1.2863  1.4054 -0.8246
  956SOL    HW2 2868   0.262   2.296   0.327  3.2281  2.3516 -2.3539
  957SOL     OW 2869   2.183   2.599   0.404  0.4459  0.2666 -0.2861
  957SOL    HW1 2870   2.234   2.513   0.404 -1.0638  0.5658 -0.3654
  957SOL    HW2 2871   2.135   2.621   0.320  1.7694 -2.4718 -0.2975
  958SOL     OW 2872   1.906   1.450   2.734 -0.6598  0.1935 -0.3638
  958SOL    HW1 2873   1.992   1.469   2.785 -1.5811 -0.8417  3.9050
  958SOL    HW2 2874   1.930   1.400   2.650 -0.1444  1.5175  0.8122
  959SOL     OW 2875   0.136   2.270   2.621  0.0043  0.2511 -0.6111
  959SOL    HW1 2876   0.201   2.341   2.640  1.2991 -2.2082  3.3138
  959SOL    HW2 2877   0.043   2.301   2.648 -0.0197 -0.4467  2.4015
  960SOL     OW 2878   1.498   1.987   2.748  0.3347 -0.5413  0.6197
  960SOL    HW1 2879   1.541   1.918   2.808 -2.1000 -2.3556 -0.2181
  960SOL    HW2 2880   1.415   1.952   2.696 -0.1205  2.3303 -0.5853
  961SOL     OW 2881   0.086   1.416   2.415 -0.7208 -0.1708  0.2592
  961SOL    HW1 2882  -0.001   1.470   2.414 -0.5929  3.3937  0.7859
  961SOL    HW2 2883   0.157   1.467   2.364 -3.2871 -1.3549  1.8128
  962SOL     OW 2884   2.482   2.993   2.663 -0.4342  0.0078  0.0668
  962SOL    HW1 2885   2.503   2.991   2.763  1.5208 -0.0682 -0.4509
  962SOL    HW2 2886   2.405   2.934   2.646  1.4449 -0.7915 -2.2733
  963SOL     OW 2887   2.347   0.891   1.246 -0.0563  0.1660  0.5577
  963SOL    HW1 2888   2.360   0.801   1.296  2.5428  0.4929  0.7406
  963SOL    HW2 2889   2.260   0.885   1.196  0.2231 -0.4309  0.2439
  964SOL     OW 2890   1.475   1.627   1.797  0.0815  0.7986 -0.0716
  964SOL    HW1 2891   1.436   1.719   1.808  1.3530  1.0202 -0.3006
  964SOL    HW2 2892   1.404   1.556   1.815  0.6196  1.2971  1.5326
  965SOL     OW 2893   2.549   2.159   0.289 -0.2342 -0.5268 -0.1795
  965SOL    HW1 2894   2.531   2.105   0.201 -1.5544 -2.0702  1.0158
  965SOL    HW2 2895   2.647   2.174   0.311 -0.4173 -0.7123 -1.2605
  966SOL     OW 2896   0.057   0.227   2.387  0.1636 -0.4181 -0.5448
  966SOL    HW1 2897  -0.028   0.279   2.372  1.6187  1.7996  3.0366
  966SOL    HW2 2898   0.093   0.244   2.480 -3.6070 -0.4591 -1.5538
  967SOL     OW 2899   2.461   2.668   2.086 -0.6398  0.1304  0.2112
  967SOL    HW1 2900   2.411   2.743   2.045 -0.1508  0.1734 -2.0393
  967SOL    HW2 2901   2.460   2.584   2.020  1.2597  0.0169 -2.0372
  968SOL     OW 2902   1.440   1.675   0.259  0.0060  0.9603 -0.0029
  968SOL    HW1 2903   1.422   1.580   0.242  0.3904  2.3284 -2.0479
  968SOL    HW2 2904   1.356   1.733   0.245  0.4858  1.1566  1.4820
  969SOL     OW 2905   1.801   2.677   1.721 -0.1521  0.1623 -0.0553
  969SOL    HW1 2906   1.866   2.627   1.778  0.1718  1.2480  1.1863
  969SOL    HW2 2907   1.725   2.617   1.703  1.9034  0.9368 -0.5464
  970SOL     OW 2908   2.941   1.089   2.278  0.1419  0.6315 -0.2622
  970SOL    HW1 2909   2.913   1.083   2.184  0.1000  0.2509  2.4599
  970SOL    HW2 2910   2.886   1.146   2.343 -1.3198  3.8053  1.6203
  971SOL     OW 2911   1.949   1.786   0.219  0.4971 -0.2374 -0.4821
  971SOL    HW1 2912   1.859   1.729   0.219 -1.6896 -2.7200 -1.0856
  971SOL    HW2 2913   1.948   1.860   0.290  0.0686  0.6841  1.3516
  972SOL     OW 2914   0.735   2.771   2.037  0.2304  0.6358  0.3325
  972SOL    HW1 2915   0.632   2.779   2.010 -2.4970 -0.0489 -3.5295
  972SOL    HW2 2916   0.800   2.796   1.964 -0.8234  2.5409  0.6291
  973SOL     OW 2917   2.332   2.172   1.550 -0.4024  0.4348  0.1166
  973SOL    HW1 2918   2.311   2.073   1.536 -1.3800  2.7943  0.9065
  973SOL    HW2 2919   2.376   2.223   1.471  1.3991  1.1471 -1.7166
  974SOL     OW 2920   1.535   2.841   0.666  0.4897 -0.1901 -0.5413
  974SOL    HW1 2921   1.633   2.816   0.663 -2.3472 -0.9167  0.3847
  974SOL    HW2 2922   1.484   2.773   0.722 -0.0064  2.1527  1.7319
  975SOL     OW 2923   2.136   1.518   2.350  0.4675 -0.4635 -0.3799
  975SOL    HW1 2924   2.110   1.434   2.298 -2.0092  0.9461  1.5842
  975SOL    HW2 2925   2.181   1.587   2.290  4.1380  0.6516  2.0202
  976SOL     OW 2926   0.704   0.090   2.218  0.2332  1.1499  0.0883
  976SOL    HW1 2927   0.627   0.136   2.265  0.4142  1.8389  2.4239
  976SOL    HW2 2928   0.706  -0.012   2.245  0.3463 -0.2159 -1.3681
  977SOL     OW 2929   0.752   2.474   2.719 -0.1662 -0.1815  0.6472
  977SOL    HW1 2930   0.682   2.439   2.787  1.2625 -0.4010  0.1775
  977SOL    HW2 2931   0.732   2.433   2.629  1.9763  0.2449  0.3081
   3.10000   3.10000   3.10000
