1000 SPC/Fw water molecules
 2931
    1SOL     OW    1   0.235   0.646   0.153
    1SOL    HW1    2   0.158   0.642   0.219
    1SOL    HW2    3   0.200   0.622   0.059
    2SOL     OW    4   0.235   0.270   0.939
    2SOL    HW1    5   0.332   0.239   0.954
    2SOL    HW2    6   0.170   0.198   0.971
    3SOL     OW    7   3.093   0.445   0.556
    3SOL    HW1    8   2.999   0.460   0.593
    3SOL    HW2    9   3.092   0.369   0.487
    4SOL     OW   10   0.599   1.318   1.226
    4SOL    HW1   11   0.511   1.312   1.176
    4SOL    HW2   12   0.620   1.415   1.247
    5SOL     OW   13   1.594   1.523   0.704
    5SOL    HW1   14   1.542   1.487   0.784
    5SOL    HW2   15   1.531   1.535   0.624
    6SOL     OW   16   1.140   0.731   0.694
    6SOL    HW1   17   1.199   0.812   0.677
    6SOL    HW2   18   1.093   0.739   0.784
    7SOL     OW   19   1.790   0.628   0.195
    7SOL    HW1   20   1.753   0.648   0.103
    7SOL    HW2   21   1.744   0.546   0.236
    8SOL     OW   22   0.725   1.127   1.059
    8SOL    HW1   23   0.673   1.163   1.139
    8SOL    HW2   24   0.762   1.206   1.007
    9SOL     OW   25   0.892   0.739   1.826
    9SOL    HW1   26   0.896   0.804   1.905
    9SOL    HW2   27   0.912   0.788   1.739
   10SOL     OW   28   0.705   0.988   0.673
   10SOL    HW1   29   0.779   0.985   0.744
   10SOL    HW2   30   0.626   1.044   0.705
   11SOL     OW   31   0.722   1.162   1.843
   11SOL    HW1   32   0.783   1.231   1.887
   11SOL    HW2   33   0.640   1.206   1.801
   12SOL     OW   34   0.364   1.378   1.089
   12SOL    HW1   35   0.276   1.332   1.063
   12SOL    HW2   36   0.398   1.440   1.015
   13SOL     OW   37   1.437   1.511   1.376
   13SOL    HW1   38   1.499   1.592   1.392
   13SOL    HW2   39   1.356   1.516   1.439
   14SOL     OW   40   0.473   0.403   1.447
   14SOL    HW1   41   0.552   0.342   1.465
   14SOL    HW2   42   0.386   0.366   1.485
   15SOL     OW   43   1.573   0.446   0.752
   15SOL    HW1   44   1.509   0.446   0.673
   15SOL    HW2   45   1.545   0.518   0.819
   16SOL     OW   46   0.241   1.724   0.523
   16SOL    HW1   47   0.270   1.805   0.578
   16SOL    HW2   48   0.317   1.699   0.458
   17SOL     OW   49   1.128   1.339   1.703
   17SOL    HW1   50   1.181   1.328   1.789
   17SOL    HW2   51   1.068   1.257   1.689
   18SOL     OW   52   0.178   1.460   0.515
   18SOL    HW1   53   0.197   1.559   0.534
   18SOL    HW2   54   0.184   1.403   0.600
   19SOL     OW   55   0.273   1.084   0.909
   19SOL    HW1   56   0.289   0.985   0.932
   19SOL    HW2   57   0.220   1.129   0.984
   20SOL     OW   58   0.562   1.838   1.393
   20SOL    HW1   59   0.493   1.804   1.461
   20SOL    HW2   60   0.619   1.912   1.436
   21SOL     OW   61   0.572   0.972   0.218
   21SOL    HW1   62   0.640   0.976   0.140
   21SOL    HW2   63   0.616   1.016   0.299
   22SOL     OW   64   1.571   0.169   1.450
   22SOL    HW1   65   1.630   0.247   1.420
   22SOL    HW2   66   1.530   0.188   1.541
   23SOL     OW   67   0.152   0.684   0.554
   23SOL    HW1   68   0.090   0.604   0.563
   23SOL    HW2   69   0.137   0.752   0.629
   24SOL     OW   70   1.868   1.718   0.332
   24SOL    HW1   71   1.941   1.702   0.401
   24SOL    HW2   72   1.875   1.814   0.297
   25SOL     OW   73   3.054   1.648   0.195
   25SOL    HW1   74   3.032   1.606   0.105
   25SOL    HW2   75   3.043   1.579   0.270
   26SOL     OW   76   1.710   0.933   0.680
   26SOL    HW1   77   1.804   0.894   0.685
   26SOL    HW2   78   1.696   0.986   0.594
   27SOL     OW   79   1.669   1.111   0.465
   27SOL    HW1   80   1.749   1.100   0.402
   27SOL    HW2   81   1.692   1.179   0.538
   28SOL     OW   82   0.212   0.730   1.601
   28SOL    HW1   83   0.315   0.732   1.604
   28SOL    HW2   84   0.175   0.822   1.627
   29SOL     OW   85   0.621   1.385   0.730
   29SOL    HW1   86   0.578   1.293   0.745
   29SOL    HW2   87   0.606   1.413   0.633
   30SOL     OW   88   1.257   1.214   1.421
   30SOL    HW1   89   1.276   1.142   1.352
   30SOL    HW2   90   1.326   1.213   1.497
   31SOL     OW   91   0.787   0.109   0.594
   31SOL    HW1   92   0.843   0.173   0.536
   31SOL    HW2   93   0.693   0.099   0.554
   32SOL     OW   94   0.208   0.963   1.270
   32SOL    HW1   95   0.298   0.916   1.258
   32SOL    HW2   96   0.138   0.925   1.205
   33SOL     OW   97   1.493   1.038   0.263
   33SOL    HW1   98   1.418   0.975   0.295
   33SOL    HW2   99   1.562   1.053   0.336
   34SOL     OW  100   1.184   1.813   1.626
   34SOL    HW1  101   1.183   1.887   1.556
   34SOL    HW2  102   1.193   1.720   1.585
   35SOL     OW  103   0.326   0.313   1.861
   35SOL    HW1  104   0.376   0.384   1.915
   35SOL    HW2  105   0.239   0.286   1.906
   36SOL     OW  106   1.455   1.425   0.917
   36SOL    HW1  107   1.401   1.449   1.001
   36SOL    HW2  108   1.445   1.325   0.895
   37SOL     OW  109   1.626   1.833   0.550
   37SOL    HW1  110   1.622   1.773   0.467
   37SOL    HW2  111   1.640   1.777   0.634
   38SOL     OW  112   0.594   0.710   0.299
   38SOL    HW1  113   0.598   0.807   0.266
   38SOL    HW2  114   0.526   0.702   0.376
   39SOL     OW  115   1.275   0.401   0.941
   39SOL    HW1  116   1.177   0.373   0.942
   39SOL    HW2  117   1.327   0.340   1.003
   40SOL     OW  118   1.599   1.675   0.330
   40SOL    HW1  119   1.701   1.674   0.327
   40SOL    HW2  120   1.561   1.669   0.235
   41SOL     OW  121   0.798   0.592   1.454
   41SOL    HW1  122   0.758   0.573   1.546
   41SOL    HW2  123   0.766   0.524   1.384
   42SOL     OW  124   1.393   0.457   1.675
   42SOL    HW1  125   1.394   0.508   1.764
   42SOL    HW2  126   1.437   0.366   1.686
   43SOL     OW  127   0.946   0.878   1.591
   43SOL    HW1  128   1.002   0.809   1.540
   43SOL    HW2  129   0.891   0.932   1.524
   44SOL     OW  130   1.001   0.434   1.193
   44SOL    HW1  131   0.903   0.438   1.224
   44SOL    HW2  132   1.008   0.386   1.104
   45SOL     OW  133   1.058   0.735   0.433
   45SOL    HW1  134   1.077   0.731   0.534
   45SOL    HW2  135   0.971   0.686   0.410
   46SOL     OW  136   0.124   0.866   0.756
   46SOL    HW1  137   0.197   0.831   0.819
   46SOL    HW2  138   0.119   0.968   0.763
   47SOL     OW  139   0.123   1.854   1.607
   47SOL    HW1  140   0.123   1.824   1.705
   47SOL    HW2  141   0.062   1.793   1.553
   48SOL     OW  142   0.850   0.379   0.193
   48SOL    HW1  143   0.933   0.419   0.147
   48SOL    HW2  144   0.772   0.377   0.127
   49SOL     OW  145   1.668   0.570   1.838
   49SOL    HW1  146   1.652   0.657   1.786
   49SOL    HW2  147   1.694   0.494   1.774
   50SOL     OW  148   1.410   1.174   0.565
   50SOL    HW1  149   1.498   1.157   0.517
   50SOL    HW2  150   1.349   1.235   0.509
   51SOL     OW  151   0.484   0.186   0.975
   51SOL    HW1  152   0.528   0.199   1.067
   51SOL    HW2  153   0.549   0.140   0.911
   52SOL     OW  154   0.995   1.452   0.478
   52SOL    HW1  155   0.955   1.531   0.427
   52SOL    HW2  156   0.971   1.459   0.576
   53SOL     OW  157   0.380   1.805   0.897
   53SOL    HW1  158   0.411   1.708   0.905
   53SOL    HW2  159   0.453   1.869   0.928
   54SOL     OW  160   1.799   1.054   0.918
   54SOL    HW1  161   1.754   1.040   0.828
   54SOL    HW2  162   1.728   1.069   0.991
   55SOL     OW  163   1.197   1.531   1.514
   55SOL    HW1  164   1.189   1.462   1.588
   55SOL    HW2  165   1.135   1.506   1.437
   56SOL     OW  166   0.317   0.948   0.341
   56SOL    HW1  167   0.406   0.958   0.291
   56SOL    HW2  168   0.298   0.850   0.361
   57SOL     OW  169   1.497   0.767   0.708
   57SOL    HW1  170   1.484   0.720   0.798
   57SOL    HW2  171   1.580   0.828   0.708
   58SOL     OW  172   0.494   1.291   1.751
   58SOL    HW1  173   0.469   1.285   1.652
   58SOL    HW2  174   0.408   1.287   1.805
   59SOL     OW  175   1.023   1.753   0.166
   59SOL    HW1  176   0.975   1.710   0.245
   59SOL    HW2  177   1.103   1.697   0.135
   60SOL     OW  178   0.201   0.325   1.477
   60SOL    HW1  179   0.160   0.415   1.452
   60SOL    HW2  180   0.131   0.265   1.521
   61SOL     OW  181   1.635   1.395   0.075
   61SOL    HW1  182   1.592   1.486   0.091
   61SOL    HW2  183   1.564   1.320   0.075
   62SOL     OW  184   0.470   1.701   0.376
   62SOL    HW1  185   0.509   1.783   0.424
   62SOL    HW2  186   0.526   1.680   0.293
   63SOL     OW  187   1.450   0.167   0.450
   63SOL    HW1  188   1.434   0.142   0.352
   63SOL    HW2  189   1.550   0.180   0.468
   64SOL     OW  190   0.299   1.817   1.242
   64SOL    HW1  191   0.392   1.781   1.264
   64SOL    HW2  192   0.227   1.748   1.262
   65SOL     OW  193   0.957   1.688   0.889
   65SOL    HW1  194   1.049   1.647   0.905
   65SOL    HW2  195   0.908   1.636   0.815
   66SOL     OW  196   0.411   0.676   0.492
   66SOL    HW1  197   0.431   0.576   0.504
   66SOL    HW2  198   0.313   0.691   0.515
   67SOL     OW  199   1.518   0.202   1.725
   67SOL    HW1  200   1.516   0.232   1.823
   67SOL    HW2  201   1.518   0.099   1.722
   68SOL     OW  202   0.544   0.079   0.109
   68SOL    HW1  203   0.628   0.050   0.160
   68SOL    HW2  204   0.569   0.103   0.013
   69SOL     OW  205   0.752   0.304   1.731
   69SOL    HW1  206   0.844   0.259   1.738
   69SOL    HW2  207   0.693   0.270   1.807
   70SOL     OW  208   0.863   1.509   1.175
   70SOL    HW1  209   0.839   1.458   1.089
   70SOL    HW2  210   0.932   1.459   1.230
   71SOL     OW  211   1.313   0.596   1.449
   71SOL    HW1  212   1.352   0.558   1.536
   71SOL    HW2  213   1.348   0.690   1.430
   72SOL     OW  214   0.809   1.358   0.941
   72SOL    HW1  215   0.905   1.360   0.906
   72SOL    HW2  216   0.741   1.372   0.866
   73SOL     OW  217   0.918   0.530   0.881
   73SOL    HW1  218   0.896   0.522   0.781
   73SOL    HW2  219   0.946   0.438   0.916
   74SOL     OW  220   0.535   0.096   0.501
   74SOL    HW1  221   0.446   0.080   0.548
   74SOL    HW2  222   0.523   0.159   0.421
   75SOL     OW  223   1.438   1.203   0.063
   75SOL    HW1  224   1.465   1.136   0.136
   75SOL    HW2  225   1.348   1.245   0.086
   76SOL     OW  226   0.280   0.016   0.109
   76SOL    HW1  227   0.381   0.031   0.110
   76SOL    HW2  228   0.258   3.021   0.139
   77SOL     OW  229   0.934   0.276   0.437
   77SOL    HW1  230   0.906   0.314   0.347
   77SOL    HW2  231   1.035   0.283   0.451
   78SOL     OW  232   1.052   0.695   1.423
   78SOL    HW1  233   0.971   0.634   1.437
   78SOL    HW2  234   1.141   0.644   1.432
   79SOL     OW  235   1.218   1.572   0.804
   79SOL    HW1  236   1.229   1.647   0.736
   79SOL    HW2  237   1.309   1.543   0.840
   80SOL     OW  238   0.492   1.143   0.744
   80SOL    HW1  239   0.423   1.121   0.816
   80SOL    HW2  240   0.446   1.148   0.652
   81SOL     OW  241   1.242   1.783   0.623
   81SOL    HW1  242   1.295   1.850   0.567
   81SOL    HW2  243   1.160   1.829   0.663
   82SOL     OW  244   1.069   0.491   0.086
   82SOL    HW1  245   1.047   0.565   0.018
   82SOL    HW2  246   1.128   0.529   0.161
   83SOL     OW  247   0.114   0.577   1.396
   83SOL    HW1  248   0.201   0.576   1.342
   83SOL    HW2  249   0.125   0.642   1.474
   84SOL     OW  250   0.576   0.211   1.231
   84SOL    HW1  251   0.630   0.206   1.318
   84SOL    HW2  252   0.477   0.194   1.250
   85SOL     OW  253   0.873   0.486   0.621
   85SOL    HW1  254   0.820   0.552   0.565
   85SOL    HW2  255   0.891   0.401   0.567
   86SOL     OW  256   1.011   0.113   0.756
   86SOL    HW1  257   0.928   0.106   0.698
   86SOL    HW2  258   1.058   0.022   0.763
   87SOL     OW  259   1.431   1.158   0.860
   87SOL    HW1  260   1.359   1.089   0.879
   87SOL    HW2  261   1.445   1.166   0.760
   88SOL     OW  262   1.452   0.621   0.940
   88SOL    HW1  263   1.380   0.548   0.948
   88SOL    HW2  264   1.515   0.619   1.021
   89SOL     OW  265   1.814   0.806   0.392
   89SOL    HW1  266   1.875   0.764   0.464
   89SOL    HW2  267   1.807   0.745   0.310
   90SOL     OW  268   0.484   1.432   0.106
   90SOL    HW1  269   0.419   1.398   0.176
   90SOL    HW2  270   0.442   1.431   0.013
   91SOL     OW  271   1.735   1.277   0.660
   91SOL    HW1  272   1.835   1.266   0.678
   91SOL    HW2  273   1.703   1.373   0.675
   92SOL     OW  274   1.383   0.584   0.102
   92SOL    HW1  275   1.328   0.579   0.189
   92SOL    HW2  276   1.432   0.495   0.087
   93SOL     OW  277   0.490   0.268   0.296
   93SOL    HW1  278   0.506   0.197   0.224
   93SOL    HW2  279   0.482   0.361   0.253
   94SOL     OW  280   1.730   1.252   1.536
   94SOL    HW1  281   1.820   1.206   1.525
   94SOL    HW2  282   1.745   1.345   1.575
   95SOL     OW  283   1.034   1.353   1.343
   95SOL    HW1  284   0.946   1.325   1.385
   95SOL    HW2  285   1.113   1.301   1.384
   96SOL     OW  286   1.620   1.647   1.679
   96SOL    HW1  287   1.598   1.680   1.586
   96SOL    HW2  288   1.702   1.586   1.675
   97SOL     OW  289   1.151   1.261   1.111
   97SOL    HW1  290   1.092   1.290   1.189
   97SOL    HW2  291   1.111   1.289   1.021
   98SOL     OW  292   1.596   1.101   1.095
   98SOL    HW1  293   1.590   1.171   1.169
   98SOL    HW2  294   1.528   1.121   1.020
   99SOL     OW  295   0.915   0.058   1.380
   99SOL    HW1  296   0.936   0.060   1.280
   99SOL    HW2  297   0.988   0.112   1.429
  100SOL     OW  298   0.966   1.118   1.714
  100SOL    HW1  299   0.872   1.135   1.751
  100SOL    HW2  300   0.969   1.030   1.663
  101SOL     OW  301   0.738   1.063   0.412
  101SOL    HW1  302   0.728   1.035   0.510
  101SOL    HW2  303   0.823   1.023   0.371
  102SOL     OW  304   0.444   0.820   1.251
  102SOL    HW1  305   0.517   0.828   1.322
  102SOL    HW2  306   0.401   0.727   1.256
  103SOL     OW  307   1.242   0.388   1.295
  103SOL    HW1  308   1.276   0.466   1.353
  103SOL    HW2  309   1.150   0.410   1.256
  104SOL     OW  310   0.126   1.619   1.318
  104SOL    HW1  311   0.063   1.601   1.397
  104SOL    HW2  312   0.215   1.571   1.330
  105SOL     OW  313   0.355   1.165   0.509
  105SOL    HW1  314   0.363   1.241   0.442
  105SOL    HW2  315   0.335   1.077   0.460
  106SOL     OW  316   0.532   0.572   0.874
  106SOL    HW1  317   0.562   0.617   0.788
  106SOL    HW2  318   0.607   0.574   0.943
  107SOL     OW  319   1.253   1.367   0.419
  107SOL    HW1  320   1.315   1.441   0.452
  107SOL    HW2  321   1.156   1.387   0.446
  108SOL     OW  322   1.315   1.479   1.138
  108SOL    HW1  323   1.361   1.490   1.229
  108SOL    HW2  324   1.256   1.395   1.137
  109SOL     OW  325   1.605   0.633   0.486
  109SOL    HW1  326   1.547   0.672   0.560
  109SOL    HW2  327   1.666   0.705   0.448
  110SOL     OW  328   0.371   1.504   1.326
  110SOL    HW1  329   0.361   1.455   1.237
  110SOL    HW2  330   0.467   1.539   1.335
  111SOL     OW  331   0.485   0.738   1.637
  111SOL    HW1  332   0.533   0.781   1.557
  111SOL    HW2  333   0.546   0.665   1.676
  112SOL     OW  334   1.626   0.799   1.700
  112SOL    HW1  335   1.532   0.838   1.691
  112SOL    HW2  336   1.683   0.827   1.620
  113SOL     OW  337   0.977   0.164   1.770
  113SOL    HW1  338   1.048   0.235   1.749
  113SOL    HW2  339   1.018   0.071   1.777
  114SOL     OW  340   0.476   0.091   1.784
  114SOL    HW1  341   0.448   0.053   1.694
  114SOL    HW2  342   0.416   0.171   1.808
  115SOL     OW  343   0.591   0.880   1.030
  115SOL    HW1  344   0.634   0.972   1.033
  115SOL    HW2  345   0.533   0.864   1.112
  116SOL     OW  346   1.295   0.851   1.001
  116SOL    HW1  347   1.199   0.823   0.981
  116SOL    HW2  348   1.359   0.775   0.980
  117SOL     OW  349   1.212   0.549   0.310
  117SOL    HW1  350   1.228   0.469   0.371
  117SOL    HW2  351   1.162   0.623   0.359
  118SOL     OW  352   0.319   0.159   1.297
  118SOL    HW1  353   0.276   0.227   1.360
  118SOL    HW2  354   0.248   0.104   1.249
  119SOL     OW  355   0.035   1.309   1.333
  119SOL    HW1  356   0.080   1.240   1.394
  119SOL    HW2  357   0.055   1.404   1.363
  120SOL     OW  358   0.734   0.645   1.052
  120SOL    HW1  359   0.800   0.616   0.980
  120SOL    HW2  360   0.688   0.734   1.029
  121SOL     OW  361   1.750   0.982   1.867
  121SOL    HW1  362   1.709   0.906   1.812
  121SOL    HW2  363   1.688   1.008   1.943
  122SOL     OW  364   0.281   0.062   0.626
  122SOL    HW1  365   0.258   0.162   0.637
  122SOL    HW2  366   0.305   0.021   0.716
  123SOL     OW  367   1.663   0.419   0.326
  123SOL    HW1  368   1.690   0.335   0.377
  123SOL    HW2  369   1.631   0.493   0.390
  124SOL     OW  370   1.034   0.761   0.956
  124SOL    HW1  371   1.008   0.782   1.053
  124SOL    HW2  372   0.997   0.669   0.930
  125SOL     OW  373   0.986   1.564   1.766
  125SOL    HW1  374   0.950   1.623   1.691
  125SOL    HW2  375   1.025   1.477   1.728
  126SOL     OW  376   1.842   1.498   1.604
  126SOL    HW1  377   1.863   1.524   1.507
  126SOL    HW2  378   1.928   1.502   1.659
  127SOL     OW  379   0.387   0.925   1.814
  127SOL    HW1  380   0.458   0.954   1.882
  127SOL    HW2  381   0.426   0.855   1.750
  128SOL     OW  382   1.513   0.343   0.107
  128SOL    HW1  383   1.467   0.258   0.140
  128SOL    HW2  384   1.580   0.376   0.177
  129SOL     OW  385   1.313   0.838   0.047
  129SOL    HW1  386   1.338   0.739   0.054
  129SOL    HW2  387   1.392   0.893   0.014
  130SOL     OW  388   1.067   1.355   0.866
  130SOL    HW1  389   1.087   1.268   0.814
  130SOL    HW2  390   1.124   1.433   0.833
  131SOL     OW  391   0.331   0.809   0.928
  131SOL    HW1  392   0.431   0.825   0.939
  131SOL    HW2  393   0.306   0.717   0.962
  132SOL     OW  394   0.302   0.525   0.999
  132SOL    HW1  395   0.267   0.430   0.978
  132SOL    HW2  396   0.388   0.541   0.947
  133SOL     OW  397   1.134   0.373   1.704
  133SOL    HW1  398   1.088   0.427   1.778
  133SOL    HW2  399   1.229   0.408   1.687
  134SOL     OW  400   1.111   0.221   1.475
  134SOL    HW1  401   1.111   0.275   1.561
  134SOL    HW2  402   1.165   0.269   1.403
  135SOL     OW  403   3.014   1.324   0.127
  135SOL    HW1  404   2.914   1.313   0.110
  135SOL    HW2  405   3.031   1.356   0.223
  136SOL     OW  406   0.114   1.852   0.929
  136SOL    HW1  407   0.070   1.823   0.841
  136SOL    HW2  408   0.213   1.828   0.929
  137SOL     OW  409   0.495   1.553   0.914
  137SOL    HW1  410   0.571   1.615   0.944
  137SOL    HW2  411   0.529   1.489   0.841
  138SOL     OW  412   0.932   0.804   1.202
  138SOL    HW1  413   0.985   0.771   1.283
  138SOL    HW2  414   0.850   0.745   1.185
  139SOL     OW  415   0.031   0.575   1.129
  139SOL    HW1  416   0.114   0.549   1.075
  139SOL    HW2  417   0.048   0.569   1.229
  140SOL     OW  418   0.158   0.509   1.746
  140SOL    HW1  419   0.237   0.445   1.755
  140SOL    HW2  420   0.181   0.590   1.688
  141SOL     OW  421   1.393   0.925   1.637
  141SOL    HW1  422   1.413   1.025   1.638
  141SOL    HW2  423   1.382   0.893   1.541
  142SOL     OW  424   0.835   0.603   0.357
  142SOL    HW1  425   0.839   0.518   0.301
  142SOL    HW2  426   0.746   0.652   0.340
  143SOL     OW  427   1.620   0.611   1.155
  143SOL    HW1  428   1.578   0.555   1.229
  143SOL    HW2  429   1.717   0.581   1.138
  144SOL     OW  430   0.299   1.566   1.750
  144SOL    HW1  431   0.238   1.633   1.797
  144SOL    HW2  432   0.285   1.472   1.785
  145SOL     OW  433   0.731   0.445   1.235
  145SOL    HW1  434   0.666   0.367   1.223
  145SOL    HW2  435   0.717   0.518   1.165
  146SOL     OW  436   0.865   1.708   1.546
  146SOL    HW1  437   0.826   1.637   1.486
  146SOL    HW2  438   0.895   1.790   1.492
  147SOL     OW  439   0.468   0.507   0.168
  147SOL    HW1  440   0.529   0.576   0.213
  147SOL    HW2  441   0.374   0.547   0.161
  148SOL     OW  442   0.172   1.125   1.480
  148SOL    HW1  443   0.154   1.072   1.566
  148SOL    HW2  444   0.185   1.062   1.401
  149SOL     OW  445   1.276   1.034   1.203
  149SOL    HW1  446   1.287   0.964   1.128
  149SOL    HW2  447   1.230   1.117   1.165
  150SOL     OW  448   1.286   0.874   0.321
  150SOL    HW1  449   1.207   0.830   0.369
  150SOL    HW2  450   1.287   0.851   0.221
  151SOL     OW  451   1.757   1.707   1.162
  151SOL    HW1  452   1.830   1.738   1.097
  151SOL    HW2  453   1.725   1.613   1.136
  152SOL     OW  454   1.261   1.749   1.099
  152SOL    HW1  455   1.354   1.787   1.079
  152SOL    HW2  456   1.268   1.648   1.113
  153SOL     OW  457   0.119   1.241   1.073
  153SOL    HW1  458   0.109   1.258   1.174
  153SOL    HW2  459   0.026   1.222   1.036
  154SOL     OW  460   0.692   1.712   1.757
  154SOL    HW1  461   0.621   1.785   1.756
  154SOL    HW2  462   0.762   1.727   1.684
  155SOL     OW  463   1.012   0.133   3.074
  155SOL    HW1  464   1.062   0.168   0.056
  155SOL    HW2  465   0.912   0.126   3.090
  156SOL     OW  466   1.744   0.171   0.463
  156SOL    HW1  467   1.807   0.163   0.383
  156SOL    HW2  468   1.786   0.130   0.547
  157SOL     OW  469   1.407   1.580   0.506
  157SOL    HW1  470   1.472   1.615   0.434
  157SOL    HW2  471   1.344   1.653   0.539
  158SOL     OW  472   0.133   1.759   1.865
  158SOL    HW1  473   0.077   1.689   1.913
  158SOL    HW2  474   0.182   1.817   1.934
  159SOL     OW  475   1.299   0.946   0.661
  159SOL    HW1  476   1.375   0.878   0.673
  159SOL    HW2  477   1.334   1.028   0.611
  160SOL     OW  478   0.783   1.288   1.430
  160SOL    HW1  479   0.756   1.344   1.512
  160SOL    HW2  480   0.709   1.291   1.360
  161SOL     OW  481   0.649   1.639   0.181
  161SOL    HW1  482   0.642   1.719   0.118
  161SOL    HW2  483   0.597   1.558   0.144
  162SOL     OW  484   1.607   1.726   1.403
  162SOL    HW1  485   1.661   1.717   1.317
  162SOL    HW2  486   1.598   1.824   1.430
  163SOL     OW  487   1.845   0.166   0.939
  163SOL    HW1  488   1.864   0.123   0.848
  163SOL    HW2  489   1.747   0.196   0.942
  164SOL     OW  490   0.218   0.320   0.672
  164SOL    HW1  491   0.138   0.375   0.640
  164SOL    HW2  492   0.222   0.315   0.774
  165SOL     OW  493   1.231   1.598   0.072
  165SOL    HW1  494   1.221   1.508   0.119
  165SOL    HW2  495   1.222   1.584   3.071
  166SOL     OW  496   0.824   1.018   1.394
  166SOL    HW1  497   0.867   0.997   1.304
  166SOL    HW2  498   0.812   1.119   1.409
  167SOL     OW  499   0.960   0.957   0.302
  167SOL    HW1  500   1.009   0.965   0.213
  167SOL    HW2  501   0.997   0.880   0.357
  168SOL     OW  502   1.496   1.650   0.077
  168SOL    HW1  503   1.397   1.625   0.079
  168SOL    HW2  504   1.515   1.707   3.095
  169SOL     OW  505   0.391   1.291   1.505
  169SOL    HW1  506   0.383   1.371   1.442
  169SOL    HW2  507   0.313   1.226   1.493
  170SOL     OW  508   1.594   1.299   1.294
  170SOL    HW1  509   1.652   1.271   1.373
  170SOL    HW2  510   1.525   1.368   1.324
  171SOL     OW  511   1.102   1.113   0.759
  171SOL    HW1  512   1.019   1.064   0.794
  171SOL    HW2  513   1.168   1.048   0.716
  172SOL     OW  514   1.019   0.282   0.965
  172SOL    HW1  515   1.018   0.234   0.874
  172SOL    HW2  516   1.003   0.211   1.037
  173SOL     OW  517   0.599   1.465   0.476
  173SOL    HW1  518   0.658   1.420   0.405
  173SOL    HW2  519   0.543   1.541   0.436
  174SOL     OW  520   1.775   0.350   1.397
  174SOL    HW1  521   1.838   0.430   1.389
  174SOL    HW2  522   1.797   0.280   1.326
  175SOL     OW  523   0.283   1.362   0.285
  175SOL    HW1  524   0.225   1.280   0.265
  175SOL    HW2  525   0.249   1.407   0.370
  176SOL     OW  526   0.139   0.976   1.716
  176SOL    HW1  527   0.062   0.957   1.780
  176SOL    HW2  528   0.230   0.965   1.761
  177SOL     OW  529   0.700   0.217   1.473
  177SOL    HW1  530   0.778   0.158   1.444
  177SOL    HW2  531   0.716   0.251   1.569
  178SOL     OW  532   0.010   0.322   0.086
  178SOL    HW1  533   3.045   0.398   0.066
  178SOL    HW2  534   0.101   0.340   0.044
  179SOL     OW  535   1.395   0.852   1.376
  179SOL    HW1  536   1.333   0.912   1.321
  179SOL    HW2  537   1.490   0.856   1.337
  180SOL     OW  538   3.088   0.254   0.359
  180SOL    HW1  539   3.097   0.277   0.259
  180SOL    HW2  540   0.031   0.164   0.380
  181SOL     OW  541   1.203   1.337   0.148
  181SOL    HW1  542   1.102   1.326   0.133
  181SOL    HW2  543   1.225   1.332   0.248
  182SOL     OW  544   0.645   0.818   1.429
  182SOL    HW1  545   0.703   0.902   1.420
  182SOL    HW2  546   0.704   0.735   1.436
  183SOL     OW  547   1.517   1.842   1.055
  183SOL    HW1  548   1.543   1.902   0.977
  183SOL    HW2  549   1.598   1.794   1.094
  184SOL     OW  550   0.699   0.572   1.710
  184SOL    HW1  551   0.764   0.629   1.764
  184SOL    HW2  552   0.716   0.472   1.724
  185SOL     OW  553   1.464   1.188   1.623
  185SOL    HW1  554   1.449   1.207   1.722
  185SOL    HW2  555   1.558   1.214   1.594
  186SOL     OW  556   0.382   1.766   1.585
  186SOL    HW1  557   0.289   1.806   1.572
  186SOL    HW2  558   0.374   1.677   1.634
  187SOL     OW  559   1.638   0.873   1.250
  187SOL    HW1  560   1.638   0.784   1.200
  187SOL    HW2  561   1.625   0.952   1.186
  188SOL     OW  562   1.218   0.316   0.460
  188SOL    HW1  563   1.299   0.254   0.460
  188SOL    HW2  564   1.221   0.373   0.545
  189SOL     OW  565   0.620   0.724   0.664
  189SOL    HW1  566   0.655   0.820   0.664
  189SOL    HW2  567   0.541   0.714   0.600
  190SOL     OW  568   1.739   0.354   1.673
  190SOL    HW1  569   1.754   0.357   1.572
  190SOL    HW2  570   1.661   0.292   1.696
  191SOL     OW  571   1.760   0.906   1.491
  191SOL    HW1  572   1.762   1.005   1.514
  191SOL    HW2  573   1.719   0.891   1.398
  192SOL     OW  574   0.924   1.351   0.090
  192SOL    HW1  575   0.874   1.329   0.177
  192SOL    HW2  576   0.872   1.421   0.038
  193SOL     OW  577   0.688   1.738   0.958
  193SOL    HW1  578   0.663   1.837   0.949
  193SOL    HW2  579   0.787   1.722   0.942
  194SOL     OW  580   0.888   0.985   0.877
  194SOL    HW1  581   0.938   0.901   0.908
  194SOL    HW2  582   0.835   1.027   0.953
  195SOL     OW  583   1.064   0.954   0.044
  195SOL    HW1  584   1.061   1.039   3.087
  195SOL    HW2  585   1.158   0.914   0.043
  196SOL     OW  586   1.815   1.563   0.861
  196SOL    HW1  587   1.743   1.556   0.789
  196SOL    HW2  588   1.791   1.503   0.940
  197SOL     OW  589   0.253   1.312   1.874
  197SOL    HW1  590   0.182   1.250   1.838
  197SOL    HW2  591   0.245   1.326   1.975
  198SOL     OW  592   0.207   1.277   0.714
  198SOL    HW1  593   0.216   1.220   0.798
  198SOL    HW2  594   0.252   1.231   0.635
  199SOL     OW  595   0.696   1.448   1.639
  199SOL    HW1  596   0.618   1.393   1.677
  199SOL    HW2  597   0.698   1.540   1.683
  200SOL     OW  598   1.833   0.150   1.220
  200SOL    HW1  599   1.860   0.057   1.250
  200SOL    HW2  600   1.831   0.157   1.118
  201SOL     OW  601   0.434   0.415   0.524
  201SOL    HW1  602   0.457   0.349   0.449
  201SOL    HW2  603   0.362   0.377   0.586
  202SOL     OW  604   1.678   1.460   1.083
  202SOL    HW1  605   1.599   1.447   1.019
  202SOL    HW2  606   1.671   1.395   1.162
  203SOL     OW  607   0.348   0.567   1.267
  203SOL    HW1  608   0.407   0.505   1.324
  203SOL    HW2  609   0.345   0.537   1.169
  204SOL     OW  610   0.829   1.568   0.684
  204SOL    HW1  611   0.807   1.628   0.605
  204SOL    HW2  612   0.753   1.502   0.703
  205SOL     OW  613   1.391   0.239   1.128
  205SOL    HW1  614   1.406   0.146   1.168
  205SOL    HW2  615   1.338   0.296   1.195
  206SOL     OW  616   0.984   0.049   1.112
  206SOL    HW1  617   0.898   0.005   1.079
  206SOL    HW2  618   1.066   0.002   1.075
  207SOL     OW  619   0.800   1.317   0.333
  207SOL    HW1  620   0.771   1.223   0.361
  207SOL    HW2  621   0.876   1.352   0.392
  208SOL     OW  622   0.634   1.589   1.296
  208SOL    HW1  623   0.621   1.686   1.324
  208SOL    HW2  624   0.722   1.577   1.245
  209SOL     OW  625   1.386   0.121   0.191
  209SOL    HW1  626   1.402   0.044   0.126
  209SOL    HW2  627   1.290   0.157   0.182
  210SOL     OW  628   1.258   0.478   0.674
  210SOL    HW1  629   1.215   0.571   0.674
  210SOL    HW2  630   1.268   0.443   0.769
  211SOL     OW  631   1.593   0.243   0.942
  211SOL    HW1  632   1.517   0.240   1.009
  211SOL    HW2  633   1.576   0.311   0.868
  212SOL     OW  634   0.124   1.138   0.292
  212SOL    HW1  635   0.185   1.057   0.304
  212SOL    HW2  636   0.026   1.116   0.309
  213SOL     OW  637   0.859   1.661   0.366
  213SOL    HW1  638   0.780   1.648   0.302
  213SOL    HW2  639   0.848   1.748   0.420
  214SOL     OW  640   0.184   0.636   1.997
  214SOL    HW1  641   0.099   0.624   2.052
  214SOL    HW2  642   0.169   0.604   1.902
  215SOL     OW  643   0.224   0.261   2.823
  215SOL    HW1  644   0.249   0.265   2.922
  215SOL    HW2  645   0.162   0.183   2.806
  216SOL     OW  646   0.006   0.435   2.425
  216SOL    HW1  647   3.011   0.455   2.456
  216SOL    HW2  648   0.007   0.358   2.358
  217SOL     OW  649   0.507   1.181   3.038
  217SOL    HW1  650   0.453   1.256   2.995
  217SOL    HW2  651   0.523   1.201   0.036
  218SOL     OW  652   1.584   1.502   2.551
  218SOL    HW1  653   1.531   1.477   2.634
  218SOL    HW2  654   1.521   1.523   2.473
  219SOL     OW  655   1.143   0.741   2.535
  219SOL    HW1  656   1.201   0.825   2.535
  219SOL    HW2  657   1.086   0.737   2.620
  220SOL     OW  658   1.793   0.571   2.076
  220SOL    HW1  659   1.752   0.578   1.982
  220SOL    HW2  660   1.747   0.495   2.127
  221SOL     OW  661   0.707   1.086   2.892
  221SOL    HW1  662   0.625   1.119   2.946
  221SOL    HW2  663   0.751   1.167   2.847
  222SOL     OW  664   0.687   0.997   2.499
  222SOL    HW1  665   0.763   0.989   2.567
  222SOL    HW2  666   0.614   1.060   2.531
  223SOL     OW  667   0.378   1.405   2.944
  223SOL    HW1  668   0.290   1.374   2.902
  223SOL    HW2  669   0.426   1.473   2.884
  224SOL     OW  670   1.625   0.447   2.593
  224SOL    HW1  671   1.604   0.496   2.506
  224SOL    HW2  672   1.585   0.498   2.672
  225SOL     OW  673   0.215   1.762   2.346
  225SOL    HW1  674   0.271   1.822   2.408
  225SOL    HW2  675   0.243   1.775   2.249
  226SOL     OW  676   0.315   1.504   2.362
  226SOL    HW1  677   0.278   1.599   2.366
  226SOL    HW2  678   0.265   1.442   2.426
  227SOL     OW  679   0.274   1.068   2.711
  227SOL    HW1  680   0.294   0.982   2.761
  227SOL    HW2  681   0.226   1.137   2.771
  228SOL     OW  682   0.573   0.995   2.015
  228SOL    HW1  683   0.628   1.043   1.943
  228SOL    HW2  684   0.612   1.020   2.106
  229SOL     OW  685   0.147   0.674   2.375
  229SOL    HW1  686   0.097   0.587   2.393
  229SOL    HW2  687   0.138   0.740   2.452
  230SOL     OW  688   1.857   1.743   2.180
  230SOL    HW1  689   1.936   1.731   2.243
  230SOL    HW2  690   1.858   1.837   2.140
  231SOL     OW  691   0.008   1.570   2.013
  231SOL    HW1  692   3.076   1.477   1.985
  231SOL    HW2  693   3.085   1.589   2.110
  232SOL     OW  694   1.708   0.932   2.539
  232SOL    HW1  695   1.802   0.896   2.558
  232SOL    HW2  696   1.700   0.968   2.444
  233SOL     OW  697   1.671   1.111   2.304
  233SOL    HW1  698   1.759   1.090   2.257
  233SOL    HW2  699   1.686   1.171   2.386
  234SOL     OW  700   0.615   1.392   2.588
  234SOL    HW1  701   0.565   1.303   2.590
  234SOL    HW2  702   0.603   1.435   2.495
  235SOL     OW  703   0.793   0.113   2.478
  235SOL    HW1  704   0.857   0.167   2.419
  235SOL    HW2  705   0.702   0.106   2.432
  236SOL     OW  706   0.153   0.942   3.078
  236SOL    HW1  707   0.248   0.910   3.095
  236SOL    HW2  708   0.110   0.888   3.003
  237SOL     OW  709   1.552   1.037   2.064
  237SOL    HW1  710   1.477   0.971   2.085
  237SOL    HW2  711   1.597   1.066   2.150
  238SOL     OW  712   1.445   1.418   2.776
  238SOL    HW1  713   1.377   1.420   2.852
  238SOL    HW2  714   1.458   1.322   2.743
  239SOL     OW  715   1.631   1.844   2.397
  239SOL    HW1  716   1.618   1.778   2.320
  239SOL    HW2  717   1.656   1.796   2.483
  240SOL     OW  718   0.593   0.715   2.115
  240SOL    HW1  719   0.597   0.808   2.074
  240SOL    HW2  720   0.526   0.712   2.192
  241SOL     OW  721   1.287   0.401   2.818
  241SOL    HW1  722   1.187   0.380   2.824
  241SOL    HW2  723   1.340   0.333   2.873
  242SOL     OW  724   1.593   1.674   2.183
  242SOL    HW1  725   1.694   1.687   2.178
  242SOL    HW2  726   1.554   1.662   2.088
  243SOL     OW  727   1.054   0.708   2.275
  243SOL    HW1  728   1.082   0.716   2.373
  243SOL    HW2  729   0.964   0.660   2.266
  244SOL     OW  730   0.134   0.844   2.595
  244SOL    HW1  731   0.214   0.804   2.645
  244SOL    HW2  732   0.146   0.945   2.588
  245SOL     OW  733   0.856   0.354   2.069
  245SOL    HW1  734   0.917   0.401   2.002
  245SOL    HW2  735   0.793   0.290   2.021
  246SOL     OW  736   1.393   1.151   2.366
  246SOL    HW1  737   1.486   1.142   2.325
  246SOL    HW2  738   1.337   1.223   2.320
  247SOL     OW  739   0.625   0.157   2.966
  247SOL    HW1  740   0.639   0.257   2.979
  247SOL    HW2  741   0.627   0.130   2.868
  248SOL     OW  742   0.990   1.464   2.319
  248SOL    HW1  743   0.969   1.544   2.259
  248SOL    HW2  744   0.955   1.481   2.413
  249SOL     OW  745   0.405   1.827   2.761
  249SOL    HW1  746   0.444   1.733   2.768
  249SOL    HW2  747   0.469   1.896   2.801
  250SOL     OW  748   1.799   1.071   2.777
  250SOL    HW1  749   1.756   1.059   2.686
  250SOL    HW2  750   1.727   1.071   2.850
  251SOL     OW  751   0.288   0.947   2.115
  251SOL    HW1  752   0.377   0.964   2.069
  251SOL    HW2  753   0.258   0.851   2.099
  252SOL     OW  754   1.492   0.773   2.583
  252SOL    HW1  755   1.492   0.711   2.664
  252SOL    HW2  756   1.578   0.829   2.578
  253SOL     OW  757   1.145   1.764   2.092
  253SOL    HW1  758   1.053   1.742   2.130
  253SOL    HW2  759   1.173   1.694   2.022
  254SOL     OW  760   1.618   1.390   1.961
  254SOL    HW1  761   1.587   1.486   1.947
  254SOL    HW2  762   1.546   1.324   1.932
  255SOL     OW  763   0.470   1.760   2.159
  255SOL    HW1  764   0.513   1.810   2.236
  255SOL    HW2  765   0.539   1.708   2.106
  256SOL     OW  766   1.428   0.152   2.302
  256SOL    HW1  767   1.416   0.110   2.209
  256SOL    HW2  768   1.526   0.173   2.321
  257SOL     OW  769   0.194   1.817   3.072
  257SOL    HW1  770   0.214   1.730   0.022
  257SOL    HW2  771   0.171   1.801   2.974
  258SOL     OW  772   0.962   1.687   2.729
  258SOL    HW1  773   1.056   1.648   2.736
  258SOL    HW2  774   0.908   1.637   2.657
  259SOL     OW  775   0.412   0.675   2.314
  259SOL    HW1  776   0.432   0.576   2.335
  259SOL    HW2  777   0.312   0.691   2.324
  260SOL     OW  778   0.665   0.169   1.958
  260SOL    HW1  779   0.712   0.096   2.013
  260SOL    HW2  780   0.599   0.129   1.891
  261SOL     OW  781   0.806   1.305   2.777
  261SOL    HW1  782   0.901   1.338   2.761
  261SOL    HW2  783   0.740   1.342   2.708
  262SOL     OW  784   0.854   0.492   2.740
  262SOL    HW1  785   0.856   0.482   2.638
  262SOL    HW2  786   0.915   0.421   2.783
  263SOL     OW  787   0.551   0.107   2.353
  263SOL    HW1  788   0.459   0.086   2.391
  263SOL    HW2  789   0.543   0.162   2.267
  264SOL     OW  790   1.421   1.211   1.895
  264SOL    HW1  791   1.466   1.140   1.953
  264SOL    HW2  792   1.330   1.237   1.934
  265SOL     OW  793   0.336   0.031   2.072
  265SOL    HW1  794   0.383   0.117   2.098
  265SOL    HW2  795   0.402   3.056   2.053
  266SOL     OW  796   0.956   0.261   2.309
  266SOL    HW1  797   0.919   0.293   2.220
  266SOL    HW2  798   1.057   0.280   2.315
  267SOL     OW  799   1.217   1.580   2.669
  267SOL    HW1  800   1.231   1.650   2.596
  267SOL    HW2  801   1.306   1.540   2.698
  268SOL     OW  802   0.473   1.160   2.551
  268SOL    HW1  803   0.406   1.125   2.620
  268SOL    HW2  804   0.434   1.151   2.457
  269SOL     OW  805   1.245   1.785   2.483
  269SOL    HW1  806   1.297   1.850   2.423
  269SOL    HW2  807   1.162   1.833   2.518
  270SOL     OW  808   1.022   0.510   1.911
  270SOL    HW1  809   0.978   0.597   1.882
  270SOL    HW2  810   1.091   0.525   1.985
  271SOL     OW  811   0.861   0.468   2.474
  271SOL    HW1  812   0.824   0.528   2.401
  271SOL    HW2  813   0.902   0.384   2.433
  272SOL     OW  814   0.992   0.096   2.670
  272SOL    HW1  815   0.921   0.096   2.597
  272SOL    HW2  816   1.040   0.006   2.676
  273SOL     OW  817   1.494   1.165   2.686
  273SOL    HW1  818   1.424   1.106   2.641
  273SOL    HW2  819   1.572   1.184   2.623
  274SOL     OW  820   1.501   0.588   2.793
  274SOL    HW1  821   1.416   0.535   2.813
  274SOL    HW2  822   1.553   0.609   2.878
  275SOL     OW  823   1.796   0.776   2.253
  275SOL    HW1  824   1.869   0.751   2.321
  275SOL    HW2  825   1.794   0.707   2.177
  276SOL     OW  826   0.512   1.428   2.009
  276SOL    HW1  827   0.424   1.403   2.053
  276SOL    HW2  828   0.519   1.389   1.915
  277SOL     OW  829   1.715   1.255   2.529
  277SOL    HW1  830   1.817   1.249   2.538
  277SOL    HW2  831   1.683   1.352   2.529
  278SOL     OW  832   1.385   0.578   1.917
  278SOL    HW1  833   1.330   0.554   2.000
  278SOL    HW2  834   1.485   0.567   1.934
  279SOL     OW  835   0.489   0.265   2.137
  279SOL    HW1  836   0.561   0.235   2.072
  279SOL    HW2  837   0.456   0.359   2.111
  280SOL     OW  838   1.036   1.183   3.004
  280SOL    HW1  839   0.984   1.243   3.068
  280SOL    HW2  840   1.027   1.214   2.907
  281SOL     OW  841   1.573   1.084   2.945
  281SOL    HW1  842   1.524   1.130   3.022
  281SOL    HW2  843   1.531   1.109   2.856
  282SOL     OW  844   0.721   1.062   2.237
  282SOL    HW1  845   0.705   1.037   2.335
  282SOL    HW2  846   0.800   1.008   2.199
  283SOL     OW  847   0.402   0.841   0.038
  283SOL    HW1  848   0.461   0.893   0.102
  283SOL    HW2  849   0.351   0.766   0.085
  284SOL     OW  850   0.326   1.138   2.317
  284SOL    HW1  851   0.321   1.215   2.251
  284SOL    HW2  852   0.317   1.049   2.267
  285SOL     OW  853   0.562   0.548   2.709
  285SOL    HW1  854   0.558   0.627   2.643
  285SOL    HW2  855   0.652   0.502   2.704
  286SOL     OW  856   1.243   1.369   2.258
  286SOL    HW1  857   1.308   1.441   2.292
  286SOL    HW2  858   1.148   1.392   2.286
  287SOL     OW  859   1.246   1.412   2.959
  287SOL    HW1  860   1.234   1.356   3.043
  287SOL    HW2  861   1.174   1.389   2.889
  288SOL     OW  862   1.592   0.614   2.374
  288SOL    HW1  863   1.528   0.667   2.433
  288SOL    HW2  864   1.657   0.678   2.327
  289SOL     OW  865   0.559   0.844   2.909
  289SOL    HW1  866   0.612   0.930   2.898
  289SOL    HW2  867   0.502   0.845   2.995
  290SOL     OW  868   1.200   0.532   2.123
  290SOL    HW1  869   1.216   0.452   2.185
  290SOL    HW2  870   1.154   0.607   2.176
  291SOL     OW  871   0.277   0.274   3.094
  291SOL    HW1  872   0.357   0.329   0.024
  291SOL    HW2  873   0.277   0.181   0.038
  292SOL     OW  874   0.739   0.634   2.950
  292SOL    HW1  875   0.771   0.585   2.867
  292SOL    HW2  876   0.667   0.703   2.927
  293SOL     OW  877   0.294   0.066   2.457
  293SOL    HW1  878   0.273   0.160   2.492
  293SOL    HW2  879   0.340   0.009   2.529
  294SOL     OW  880   1.635   0.391   2.212
  294SOL    HW1  881   1.671   0.313   2.267
  294SOL    HW2  882   1.601   0.467   2.273
  295SOL     OW  883   0.993   0.728   2.764
  295SOL    HW1  884   1.018   0.729   2.863
  295SOL    HW2  885   0.941   0.643   2.743
  296SOL     OW  886   1.520   0.269   1.984
  296SOL    HW1  887   1.472   0.185   2.017
  296SOL    HW2  888   1.562   0.320   2.062
  297SOL     OW  889   1.278   0.822   1.860
  297SOL    HW1  890   1.314   0.727   1.874
  297SOL    HW2  891   1.316   0.863   1.774
  298SOL     OW  892   1.076   1.356   2.752
  298SOL    HW1  893   1.089   1.268   2.700
  298SOL    HW2  894   1.119   1.434   2.702
  299SOL     OW  895   0.323   0.788   2.781
  299SOL    HW1  896   0.418   0.812   2.811
  299SOL    HW2  897   0.310   0.687   2.793
  300SOL     OW  898   0.317   0.517   2.815
  300SOL    HW1  899   0.284   0.420   2.811
  300SOL    HW2  900   0.412   0.524   2.777
  301SOL     OW  901   1.149   0.250   0.186
  301SOL    HW1  902   1.164   0.270   0.285
  301SOL    HW2  903   1.128   0.337   0.135
  302SOL     OW  904   3.012   1.318   1.957
  302SOL    HW1  905   2.911   1.305   1.964
  302SOL    HW2  906   3.063   1.243   2.002
  303SOL     OW  907   0.137   1.824   2.794
  303SOL    HW1  908   0.092   1.806   2.703
  303SOL    HW2  909   0.239   1.821   2.783
  304SOL     OW  910   0.521   1.576   2.779
  304SOL    HW1  911   0.599   1.638   2.805
  304SOL    HW2  912   0.551   1.509   2.708
  305SOL     OW  913   0.987   0.708   3.041
  305SOL    HW1  914   1.003   0.800   3.084
  305SOL    HW2  915   0.888   0.691   3.023
  306SOL     OW  916   0.143   0.587   3.012
  306SOL    HW1  917   0.209   0.552   2.943
  306SOL    HW2  918   0.083   0.659   2.971
  307SOL     OW  919   0.814   0.583   2.222
  307SOL    HW1  920   0.824   0.497   2.168
  307SOL    HW2  921   0.736   0.639   2.185
  308SOL     OW  922   1.678   0.616   3.019
  308SOL    HW1  923   1.649   0.527   3.057
  308SOL    HW2  924   1.778   0.613   2.996
  309SOL     OW  925   0.658   0.417   3.095
  309SOL    HW1  926   0.580   0.448   0.053
  309SOL    HW2  927   0.692   0.495   3.038
  310SOL     OW  928   0.424   0.509   2.026
  310SOL    HW1  929   0.501   0.574   2.045
  310SOL    HW2  930   0.335   0.560   2.026
  311SOL     OW  931   1.342   0.877   2.121
  311SOL    HW1  932   1.271   0.851   2.189
  311SOL    HW2  933   1.311   0.857   2.025
  312SOL     OW  934   1.761   1.728   2.976
  312SOL    HW1  935   1.841   1.748   2.916
  312SOL    HW2  936   1.741   1.628   2.974
  313SOL     OW  937   0.138   1.269   2.838
  313SOL    HW1  938   0.140   1.250   2.939
  313SOL    HW2  939   0.043   1.288   2.809
  314SOL     OW  940   1.740   0.163   2.339
  314SOL    HW1  941   1.805   0.174   2.260
  314SOL    HW2  942   1.790   0.131   2.423
  315SOL     OW  943   1.402   1.577   2.358
  315SOL    HW1  944   1.466   1.612   2.286
  315SOL    HW2  945   1.338   1.650   2.388
  316SOL     OW  946   1.310   0.968   2.543
  316SOL    HW1  947   1.379   0.894   2.555
  316SOL    HW2  948   1.336   1.031   2.466
  317SOL     OW  949   0.680   1.640   2.020
  317SOL    HW1  950   0.695   1.665   1.922
  317SOL    HW2  951   0.625   1.553   2.026
  318SOL     OW  952   1.820   0.132   2.799
  318SOL    HW1  953   1.859   0.095   2.713
  318SOL    HW2  954   1.724   0.162   2.783
  319SOL     OW  955   0.233   0.312   2.549
  319SOL    HW1  956   0.154   0.368   2.518
  319SOL    HW2  957   0.234   0.303   2.651
  320SOL     OW  958   1.225   1.579   1.908
  320SOL    HW1  959   1.218   1.483   1.944
  320SOL    HW2  960   1.147   1.598   1.845
  321SOL     OW  961   0.771   0.983   0.038
  321SOL    HW1  962   0.761   1.022   3.045
  321SOL    HW2  963   0.869   0.974   0.065
  322SOL     OW  964   0.924   0.915   2.144
  322SOL    HW1  965   0.980   0.948   2.065
  322SOL    HW2  966   0.974   0.843   2.196
  323SOL     OW  967   1.491   1.653   1.923
  323SOL    HW1  968   1.393   1.625   1.909
  323SOL    HW2  969   1.539   1.659   1.832
  324SOL     OW  970   1.096   1.118   2.637
  324SOL    HW1  971   1.011   1.062   2.650
  324SOL    HW2  972   1.172   1.061   2.600
  325SOL     OW  973   1.026   0.298   2.843
  325SOL    HW1  974   1.016   0.227   2.769
  325SOL    HW2  975   1.024   0.252   2.934
  326SOL     OW  976   0.597   1.495   2.343
  326SOL    HW1  977   0.642   1.444   2.267
  326SOL    HW2  978   0.497   1.507   2.327
  327SOL     OW  979   1.823   0.361   0.020
  327SOL    HW1  980   1.858   0.369   0.115
  327SOL    HW2  981   1.819   0.263   3.092
  328SOL     OW  982   0.255   1.355   2.147
  328SOL    HW1  983   0.157   1.336   2.167
  328SOL    HW2  984   0.290   1.423   2.216
  329SOL     OW  985   0.069   0.246   1.959
  329SOL    HW1  986   0.077   0.146   1.939
  329SOL    HW2  987   0.015   0.293   1.886
  330SOL     OW  988  -0.002   0.237   2.230
  330SOL    HW1  989   0.031   0.245   2.134
  330SOL    HW2  990   0.023   0.146   2.269
  331SOL     OW  991   1.181   1.320   1.992
  331SOL    HW1  992   1.080   1.307   1.981
  331SOL    HW2  993   1.206   1.326   2.091
  332SOL     OW  994   1.511   1.812   2.935
  332SOL    HW1  995   1.486   1.806   2.837
  332SOL    HW2  996   1.610   1.791   2.948
  333SOL     OW  997   1.753   0.892   3.045
  333SOL    HW1  998   1.715   0.798   3.032
  333SOL    HW2  999   1.685   0.963   3.019
  334SOL     OW 1000   1.223   0.336   2.320
  334SOL    HW1 1001   1.298   0.266   2.315
  334SOL    HW2 1002   1.233   0.392   2.405
  335SOL     OW 1003   0.563   0.752   2.530
  335SOL    HW1 1004   0.614   0.839   2.515
  335SOL    HW2 1005   0.507   0.727   2.448
  336SOL     OW 1006   0.896   1.353   1.949
  336SOL    HW1 1007   0.845   1.361   2.037
  336SOL    HW2 1008   0.904   1.443   1.900
  337SOL     OW 1009   0.708   1.765   2.829
  337SOL    HW1 1010   0.688   1.865   2.837
  337SOL    HW2 1011   0.806   1.748   2.807
  338SOL     OW 1012   0.873   0.967   2.700
  338SOL    HW1 1013   0.914   0.876   2.721
  338SOL    HW2 1014   0.814   1.000   2.776
  339SOL     OW 1015   1.065   0.976   1.927
  339SOL    HW1 1016   1.038   1.040   1.853
  339SOL    HW2 1017   1.145   0.919   1.899
  340SOL     OW 1018   1.812   1.565   2.691
  340SOL    HW1 1019   1.740   1.550   2.621
  340SOL    HW2 1020   1.787   1.518   2.778
  341SOL     OW 1021   0.176   1.298   2.491
  341SOL    HW1 1022   0.167   1.286   2.591
  341SOL    HW2 1023   0.232   1.223   2.449
  342SOL     OW 1024   1.830   0.085   3.073
  342SOL    HW1 1025   1.854   3.089   3.094
  342SOL    HW2 1026   1.825   0.099   2.972
  343SOL     OW 1027   0.429   0.416   2.376
  343SOL    HW1 1028   0.460   0.344   2.312
  343SOL    HW2 1029   0.368   0.378   2.449
  344SOL     OW 1030   1.685   1.470   2.916
  344SOL    HW1 1031   1.598   1.448   2.867
  344SOL    HW2 1032   1.686   1.426   3.009
  345SOL     OW 1033   0.829   1.564   2.529
  345SOL    HW1 1034   0.792   1.625   2.457
  345SOL    HW2 1035   0.759   1.495   2.557
  346SOL     OW 1036   1.438   0.220   2.968
  346SOL    HW1 1037   1.427   0.122   2.992
  346SOL    HW2 1038   1.474   0.273   3.048
  347SOL     OW 1039   0.776   1.332   2.195
  347SOL    HW1 1040   0.754   1.233   2.210
  347SOL    HW2 1041   0.859   1.360   2.249
  348SOL     OW 1042   1.398   0.032   2.059
  348SOL    HW1 1043   1.460   3.051   2.054
  348SOL    HW2 1044   1.303   0.006   2.032
  349SOL     OW 1045   1.254   0.483   2.545
  349SOL    HW1 1046   1.217   0.578   2.542
  349SOL    HW2 1047   1.270   0.452   2.641
  350SOL     OW 1048   1.572   0.207   2.728
  350SOL    HW1 1049   1.515   0.223   2.811
  350SOL    HW2 1050   1.581   0.292   2.671
  351SOL     OW 1051   0.060   1.113   2.079
  351SOL    HW1 1052   0.142   1.052   2.091
  351SOL    HW2 1053   0.039   1.163   2.166
  352SOL     OW 1054   0.896   1.686   2.188
  352SOL    HW1 1055   0.816   1.666   2.128
  352SOL    HW2 1056   0.876   1.761   2.254
  353SOL     OW 1057   0.249   2.510   0.145
  353SOL    HW1 1058   0.177   2.495   0.216
  353SOL    HW2 1059   0.213   2.481   0.054
  354SOL     OW 1060   0.194   2.110   0.976
  354SOL    HW1 1061   0.226   2.104   1.073
  354SOL    HW2 1062   0.147   2.023   0.952
  355SOL     OW 1063   0.009   2.270   0.555
  355SOL    HW1 1064   3.013   2.290   0.585
  355SOL    HW2 1065   0.010   2.193   0.488
  356SOL     OW 1066   1.131   2.582   0.700
  356SOL    HW1 1067   1.192   2.663   0.682
  356SOL    HW2 1068   1.082   2.594   0.789
  357SOL     OW 1069   1.751   2.506   0.210
  357SOL    HW1 1070   1.718   2.503   0.114
  357SOL    HW2 1071   1.726   2.421   0.260
  358SOL     OW 1072   0.758   3.024   1.034
  358SOL    HW1 1073   0.690   3.014   1.108
  358SOL    HW2 1074   0.717   3.070   0.952
  359SOL     OW 1075   0.891   2.589   1.842
  359SOL    HW1 1076   0.890   2.641   1.930
  359SOL    HW2 1077   0.910   2.652   1.764
  360SOL     OW 1078   0.686   2.824   0.672
  360SOL    HW1 1079   0.765   2.832   0.737
  360SOL    HW2 1080   0.603   2.872   0.708
  361SOL     OW 1081   0.451   2.211   1.459
  361SOL    HW1 1082   0.539   2.160   1.470
  361SOL    HW2 1083   0.372   2.157   1.493
  362SOL     OW 1084   1.578   2.299   0.735
  362SOL    HW1 1085   1.536   2.323   0.645
  362SOL    HW2 1086   1.543   2.362   0.807
  363SOL     OW 1087   0.209   2.948   0.907
  363SOL    HW1 1088   0.170   2.867   0.956
  363SOL    HW2 1089   0.170   3.034   0.946
  364SOL     OW 1090   0.577   2.830   0.191
  364SOL    HW1 1091   0.637   2.864   0.116
  364SOL    HW2 1092   0.617   2.860   0.281
  365SOL     OW 1093   1.605   1.984   1.477
  365SOL    HW1 1094   1.649   2.063   1.430
  365SOL    HW2 1095   1.555   2.014   1.562
  366SOL     OW 1096   0.160   2.513   0.554
  366SOL    HW1 1097   0.100   2.433   0.574
  366SOL    HW2 1098   0.142   2.591   0.618
  367SOL     OW 1099   1.705   2.801   0.612
  367SOL    HW1 1100   1.756   2.735   0.552
  367SOL    HW2 1101   1.674   2.880   0.555
  368SOL     OW 1102   1.660   2.998   0.408
  368SOL    HW1 1103   1.747   2.957   0.372
  368SOL    HW2 1104   1.674   3.098   0.422
  369SOL     OW 1105   0.195   2.602   1.620
  369SOL    HW1 1106   0.297   2.602   1.619
  369SOL    HW2 1107   0.159   2.694   1.646
  370SOL     OW 1108   0.642   0.029   0.816
  370SOL    HW1 1109   0.569   3.065   0.786
  370SOL    HW2 1110   0.698   0.062   0.737
  371SOL     OW 1111   1.435   0.010   1.274
  371SOL    HW1 1112   1.392   3.031   1.322
  371SOL    HW2 1113   1.484   0.071   1.340
  372SOL     OW 1114   0.828   1.883   0.525
  372SOL    HW1 1115   0.875   1.970   0.499
  372SOL    HW2 1116   0.726   1.897   0.524
  373SOL     OW 1117   0.205   2.815   1.263
  373SOL    HW1 1118   0.291   2.760   1.257
  373SOL    HW2 1119   0.145   2.797   1.182
  374SOL     OW 1120   1.479   2.913   0.198
  374SOL    HW1 1121   1.424   2.837   0.238
  374SOL    HW2 1122   1.551   2.943   0.263
  375SOL     OW 1123   0.354   2.119   1.897
  375SOL    HW1 1124   0.399   2.204   1.932
  375SOL    HW2 1125   0.253   2.134   1.890
  376SOL     OW 1126   0.596   2.569   0.290
  376SOL    HW1 1127   0.598   2.665   0.257
  376SOL    HW2 1128   0.527   2.557   0.365
  377SOL     OW 1129   1.277   2.248   0.939
  377SOL    HW1 1130   1.185   2.206   0.938
  377SOL    HW2 1131   1.337   2.197   1.005
  378SOL     OW 1132   0.796   2.453   1.444
  378SOL    HW1 1133   0.766   2.430   1.540
  378SOL    HW2 1134   0.774   2.378   1.379
  379SOL     OW 1135   1.379   2.324   1.671
  379SOL    HW1 1136   1.382   2.375   1.759
  379SOL    HW2 1137   1.426   2.234   1.680
  380SOL     OW 1138   0.945   2.748   1.611
  380SOL    HW1 1139   1.002   2.678   1.562
  380SOL    HW2 1140   0.894   2.803   1.541
  381SOL     OW 1141   1.013   2.238   1.191
  381SOL    HW1 1142   0.916   2.249   1.223
  381SOL    HW2 1143   1.016   2.184   1.105
  382SOL     OW 1144   1.046   2.582   0.442
  382SOL    HW1 1145   1.070   2.582   0.541
  382SOL    HW2 1146   0.956   2.534   0.427
  383SOL     OW 1147   0.122   2.715   0.738
  383SOL    HW1 1148   0.194   2.671   0.797
  383SOL    HW2 1149   0.128   2.816   0.747
  384SOL     OW 1150   0.861   2.226   0.242
  384SOL    HW1 1151   0.926   2.275   0.179
  384SOL    HW2 1152   0.823   2.143   0.196
  385SOL     OW 1153   1.656   2.427   1.840
  385SOL    HW1 1154   1.649   2.513   1.784
  385SOL    HW2 1155   1.682   2.348   1.782
  386SOL     OW 1156   1.422   3.007   0.555
  386SOL    HW1 1157   1.501   2.983   0.496
  386SOL    HW2 1158   1.398   0.005   0.543
  387SOL     OW 1159   0.580   1.994   0.943
  387SOL    HW1 1160   0.576   2.025   1.041
  387SOL    HW2 1161   0.578   2.074   0.880
  388SOL     OW 1162   1.833   2.901   0.830
  388SOL    HW1 1163   1.779   2.863   0.751
  388SOL    HW2 1164   1.772   2.914   0.911
  389SOL     OW 1165   0.297   2.834   0.254
  389SOL    HW1 1166   0.395   2.848   0.231
  389SOL    HW2 1167   0.269   2.738   0.235
  390SOL     OW 1168   1.508   2.625   0.701
  390SOL    HW1 1169   1.507   2.582   0.793
  390SOL    HW2 1170   1.587   2.688   0.688
  391SOL     OW 1171   0.171   2.107   1.497
  391SOL    HW1 1172   0.077   2.131   1.464
  391SOL    HW2 1173   0.168   2.016   1.542
  392SOL     OW 1174   1.391   1.949   0.465
  392SOL    HW1 1175   1.387   1.936   0.364
  392SOL    HW2 1176   1.483   1.922   0.502
  393SOL     OW 1177   0.419   2.514   0.484
  393SOL    HW1 1178   0.439   2.414   0.499
  393SOL    HW2 1179   0.319   2.530   0.501
  394SOL     OW 1180   1.480   2.067   1.718
  394SOL    HW1 1181   1.497   2.086   1.817
  394SOL    HW2 1182   1.407   1.997   1.708
  395SOL     OW 1183   0.622   1.943   0.103
  395SOL    HW1 1184   0.722   1.958   0.087
  395SOL    HW2 1185   0.565   1.988   0.032
  396SOL     OW 1186   0.767   2.135   1.746
  396SOL    HW1 1187   0.856   2.083   1.742
  396SOL    HW2 1188   0.709   2.097   1.820
  397SOL     OW 1189   1.306   2.458   1.445
  397SOL    HW1 1190   1.340   2.414   1.531
  397SOL    HW2 1191   1.350   2.549   1.430
  398SOL     OW 1192   0.924   2.371   0.894
  398SOL    HW1 1193   0.901   2.363   0.794
  398SOL    HW2 1194   0.955   2.281   0.929
  399SOL     OW 1195   0.561   1.926   0.497
  399SOL    HW1 1196   0.484   1.933   0.564
  399SOL    HW2 1197   0.555   2.002   0.428
  400SOL     OW 1198   0.268   1.966   0.299
  400SOL    HW1 1199   0.310   2.013   0.219
  400SOL    HW2 1200   0.303   1.871   0.309
  401SOL     OW 1201   0.955   2.115   0.473
  401SOL    HW1 1202   0.918   2.155   0.387
  401SOL    HW2 1203   1.057   2.127   0.477
  402SOL     OW 1204   1.050   2.564   1.436
  402SOL    HW1 1205   0.969   2.501   1.445
  402SOL    HW2 1206   1.139   2.514   1.439
  403SOL     OW 1207   0.448   2.937   0.765
  403SOL    HW1 1208   0.371   2.932   0.832
  403SOL    HW2 1209   0.413   2.913   0.671
  404SOL     OW 1210   1.053   2.345   0.093
  404SOL    HW1 1211   1.024   2.418   0.027
  404SOL    HW2 1212   1.113   2.384   0.166
  405SOL     OW 1213   0.098   2.475   1.394
  405SOL    HW1 1214   0.186   2.438   1.357
  405SOL    HW2 1215   0.117   2.536   1.473
  406SOL     OW 1216   0.556   2.064   1.204
  406SOL    HW1 1217   0.577   1.982   1.262
  406SOL    HW2 1218   0.458   2.090   1.215
  407SOL     OW 1219   0.872   2.325   0.635
  407SOL    HW1 1220   0.834   2.385   0.562
  407SOL    HW2 1221   0.900   2.236   0.595
  408SOL     OW 1222   1.014   1.904   0.735
  408SOL    HW1 1223   0.946   1.904   0.659
  408SOL    HW2 1224   0.994   1.830   0.802
  409SOL     OW 1225   1.432   2.924   0.895
  409SOL    HW1 1226   1.370   2.844   0.910
  409SOL    HW2 1227   1.404   2.976   0.812
  410SOL     OW 1228   1.457   2.466   0.933
  410SOL    HW1 1229   1.385   2.394   0.942
  410SOL    HW2 1230   1.523   2.462   1.011
  411SOL     OW 1231   1.832   2.648   0.423
  411SOL    HW1 1232   1.890   2.584   0.479
  411SOL    HW2 1233   1.797   2.601   0.340
  412SOL     OW 1234   1.375   2.420   0.116
  412SOL    HW1 1235   1.318   2.417   0.201
  412SOL    HW2 1236   1.408   2.326   0.094
  413SOL     OW 1237   0.540   2.115   0.302
  413SOL    HW1 1238   0.569   2.046   0.233
  413SOL    HW2 1239   0.520   2.204   0.255
  414SOL     OW 1240   1.723   3.041   1.486
  414SOL    HW1 1241   1.825   3.043   1.488
  414SOL    HW2 1242   1.683   0.031   1.458
  415SOL     OW 1243   1.653   2.934   1.042
  415SOL    HW1 1244   1.647   3.014   1.105
  415SOL    HW2 1245   1.569   2.929   0.983
  416SOL     OW 1246   0.933   1.930   1.383
  416SOL    HW1 1247   0.952   1.909   1.285
  416SOL    HW2 1248   1.013   1.978   1.425
  417SOL     OW 1249   0.981   2.985   1.741
  417SOL    HW1 1250   0.906   3.044   1.706
  417SOL    HW2 1251   0.979   2.894   1.695
  418SOL     OW 1252   0.728   2.898   0.405
  418SOL    HW1 1253   0.712   2.876   0.503
  418SOL    HW2 1254   0.818   2.858   0.373
  419SOL     OW 1255   0.435   2.657   1.257
  419SOL    HW1 1256   0.510   2.675   1.325
  419SOL    HW2 1257   0.396   2.563   1.272
  420SOL     OW 1258   1.260   2.233   1.297
  420SOL    HW1 1259   1.282   2.319   1.348
  420SOL    HW2 1260   1.166   2.240   1.256
  421SOL     OW 1261   0.340   2.910   0.520
  421SOL    HW1 1262   0.312   3.008   0.529
  421SOL    HW2 1263   0.320   2.874   0.427
  422SOL     OW 1264   0.537   2.372   0.895
  422SOL    HW1 1265   0.543   2.432   0.813
  422SOL    HW2 1266   0.608   2.398   0.963
  423SOL     OW 1267   1.518   2.457   0.484
  423SOL    HW1 1268   1.513   2.520   0.565
  423SOL    HW2 1269   1.480   2.504   0.402
  424SOL     OW 1270   0.481   2.592   1.634
  424SOL    HW1 1271   0.531   2.637   1.557
  424SOL    HW2 1272   0.535   2.512   1.668
  425SOL     OW 1273   1.630   2.658   1.702
  425SOL    HW1 1274   1.534   2.693   1.697
  425SOL    HW2 1275   1.681   2.685   1.618
  426SOL     OW 1276   0.994   1.989   1.748
  426SOL    HW1 1277   1.053   2.072   1.741
  426SOL    HW2 1278   1.048   1.905   1.725
  427SOL     OW 1279   0.500   1.918   1.780
  427SOL    HW1 1280   0.453   1.865   1.707
  427SOL    HW2 1281   0.441   1.994   1.814
  428SOL     OW 1282   0.594   2.707   1.039
  428SOL    HW1 1283   0.549   2.757   0.962
  428SOL    HW2 1284   0.529   2.694   1.117
  429SOL     OW 1285   1.292   2.693   0.975
  429SOL    HW1 1286   1.194   2.667   0.969
  429SOL    HW2 1287   1.353   2.612   0.960
  430SOL     OW 1288   1.201   2.400   0.319
  430SOL    HW1 1289   1.219   2.319   0.378
  430SOL    HW2 1290   1.146   2.470   0.369
  431SOL     OW 1291   0.279   2.080   1.233
  431SOL    HW1 1292   0.239   2.111   1.321
  431SOL    HW2 1293   0.282   1.978   1.230
  432SOL     OW 1294   0.012   0.059   1.284
  432SOL    HW1 1295   0.056   3.089   1.345
  432SOL    HW2 1296   3.072   0.134   1.340
  433SOL     OW 1297   0.730   2.475   1.063
  433SOL    HW1 1298   0.802   2.451   0.993
  433SOL    HW2 1299   0.688   2.567   1.045
  434SOL     OW 1300   1.722   2.864   1.859
  434SOL    HW1 1301   1.693   2.777   1.814
  434SOL    HW2 1302   1.672   2.878   1.948
  435SOL     OW 1303   0.346   1.931   0.662
  435SOL    HW1 1304   0.299   2.021   0.673
  435SOL    HW2 1305   0.357   1.884   0.752
  436SOL     OW 1306   1.680   2.281   0.349
  436SOL    HW1 1307   1.710   2.199   0.402
  436SOL    HW2 1308   1.618   2.340   0.406
  437SOL     OW 1309   1.025   2.614   0.964
  437SOL    HW1 1310   0.999   2.639   1.060
  437SOL    HW2 1311   0.994   2.519   0.943
  438SOL     OW 1312   0.372   2.771   1.813
  438SOL    HW1 1313   0.433   2.821   1.877
  438SOL    HW2 1314   0.423   2.705   1.754
  439SOL     OW 1315   1.453   2.162   0.088
  439SOL    HW1 1316   1.428   2.077   0.139
  439SOL    HW2 1317   1.554   2.179   0.091
  440SOL     OW 1318   1.275   2.650   0.025
  440SOL    HW1 1319   1.314   2.558   0.051
  440SOL    HW2 1320   1.316   2.682   3.038
  441SOL     OW 1321   0.323   2.612   0.881
  441SOL    HW1 1322   0.407   2.604   0.824
  441SOL    HW2 1323   0.312   2.532   0.943
  442SOL     OW 1324   0.301   2.357   1.020
  442SOL    HW1 1325   0.251   2.270   0.999
  442SOL    HW2 1326   0.392   2.357   0.972
  443SOL     OW 1327   1.130   2.219   1.701
  443SOL    HW1 1328   1.082   2.270   1.775
  443SOL    HW2 1329   1.221   2.262   1.684
  444SOL     OW 1330   1.158   2.053   1.481
  444SOL    HW1 1331   1.139   2.113   1.562
  444SOL    HW2 1332   1.204   2.108   1.408
  445SOL     OW 1333   0.928   2.669   1.214
  445SOL    HW1 1334   0.985   2.638   1.293
  445SOL    HW2 1335   0.842   2.615   1.207
  446SOL     OW 1336   0.085   2.506   1.116
  446SOL    HW1 1337   0.158   2.445   1.079
  446SOL    HW2 1338   0.073   2.492   1.216
  447SOL     OW 1339   0.143   2.339   1.683
  447SOL    HW1 1340   0.184   2.277   1.613
  447SOL    HW2 1341   0.164   2.437   1.663
  448SOL     OW 1342   1.397   2.796   1.658
  448SOL    HW1 1343   1.435   2.890   1.669
  448SOL    HW2 1344   1.393   2.769   1.559
  449SOL     OW 1345   0.816   2.448   0.393
  449SOL    HW1 1346   0.825   2.361   0.339
  449SOL    HW2 1347   0.734   2.500   0.359
  450SOL     OW 1348   1.635   2.452   1.137
  450SOL    HW1 1349   1.609   2.390   1.213
  450SOL    HW2 1350   1.736   2.448   1.121
  451SOL     OW 1351   0.744   2.273   1.244
  451SOL    HW1 1352   0.675   2.198   1.235
  451SOL    HW2 1353   0.727   2.347   1.176
  452SOL     OW 1354   0.487   2.348   0.164
  452SOL    HW1 1355   0.545   2.422   0.203
  452SOL    HW2 1356   0.391   2.382   0.156
  453SOL     OW 1357   0.138   2.985   1.458
  453SOL    HW1 1358   0.128   2.941   1.550
  453SOL    HW2 1359   0.165   2.916   1.387
  454SOL     OW 1360   1.313   2.858   1.194
  454SOL    HW1 1361   1.302   2.792   1.116
  454SOL    HW2 1362   1.340   2.950   1.159
  455SOL     OW 1363   1.323   2.710   0.294
  455SOL    HW1 1364   1.246   2.691   0.357
  455SOL    HW2 1365   1.301   2.683   0.198
  456SOL     OW 1366   0.070   0.065   1.013
  456SOL    HW1 1367   0.046   0.064   1.113
  456SOL    HW2 1368   3.087   0.071   0.954
  457SOL     OW 1369   0.899   1.982   0.098
  457SOL    HW1 1370   0.979   2.043   0.107
  457SOL    HW2 1371   0.931   1.886   0.117
  458SOL     OW 1372   1.772   2.054   0.472
  458SOL    HW1 1373   1.829   2.026   0.392
  458SOL    HW2 1374   1.720   1.975   0.510
  459SOL     OW 1375   1.296   2.790   0.653
  459SOL    HW1 1376   1.374   2.725   0.671
  459SOL    HW2 1377   1.332   2.873   0.606
  460SOL     OW 1378   1.837   2.010   0.975
  460SOL    HW1 1379   1.871   1.917   0.952
  460SOL    HW2 1380   1.746   2.030   0.932
  461SOL     OW 1381   0.228   2.169   0.701
  461SOL    HW1 1382   0.147   2.212   0.655
  461SOL    HW2 1383   0.213   2.163   0.802
  462SOL     OW 1384   0.841   2.885   1.395
  462SOL    HW1 1385   0.881   2.838   1.314
  462SOL    HW2 1386   0.862   2.985   1.395
  463SOL     OW 1387   0.954   2.796   0.297
  463SOL    HW1 1388   0.998   2.803   0.206
  463SOL    HW2 1389   0.994   2.720   0.352
  464SOL     OW 1390   0.374   0.016   1.539
  464SOL    HW1 1391   0.394   0.070   1.455
  464SOL    HW2 1392   0.290   3.060   1.525
  465SOL     OW 1393   1.112   2.959   0.782
  465SOL    HW1 1394   1.024   2.913   0.807
  465SOL    HW2 1395   1.174   2.895   0.733
  466SOL     OW 1396   1.036   2.094   0.952
  466SOL    HW1 1397   1.030   2.055   0.858
  466SOL    HW2 1398   1.032   2.018   1.020
  467SOL     OW 1399   1.801   2.229   1.429
  467SOL    HW1 1400   1.855   2.314   1.410
  467SOL    HW2 1401   1.809   2.162   1.351
  468SOL     OW 1402   0.147   2.880   1.714
  468SOL    HW1 1403   0.114   2.957   1.773
  468SOL    HW2 1404   0.234   2.843   1.752
  469SOL     OW 1405   0.700   2.047   1.493
  469SOL    HW1 1406   0.788   2.018   1.448
  469SOL    HW2 1407   0.720   2.085   1.586
  470SOL     OW 1408   0.098   2.198   0.038
  470SOL    HW1 1409   0.004   2.193   0.076
  470SOL    HW2 1410   0.110   2.287   3.088
  471SOL     OW 1411   1.418   2.709   1.396
  471SOL    HW1 1412   1.363   2.761   1.327
  471SOL    HW2 1413   1.515   2.705   1.365
  472SOL     OW 1414   0.014   2.054   0.372
  472SOL    HW1 1415   3.078   2.011   0.286
  472SOL    HW2 1416   0.114   2.035   0.375
  473SOL     OW 1417   0.646   2.685   1.430
  473SOL    HW1 1418   0.702   2.769   1.423
  473SOL    HW2 1419   0.705   2.601   1.434
  474SOL     OW 1420   0.720   2.410   1.702
  474SOL    HW1 1421   0.776   2.470   1.763
  474SOL    HW2 1422   0.736   2.311   1.723
  475SOL     OW 1423   1.558   3.026   1.701
  475SOL    HW1 1424   1.611   2.980   1.775
  475SOL    HW2 1425   1.614   3.030   1.616
  476SOL     OW 1426   1.656   2.717   1.221
  476SOL    HW1 1427   1.648   2.624   1.179
  476SOL    HW2 1428   1.657   2.790   1.150
  477SOL     OW 1429   1.226   2.166   0.464
  477SOL    HW1 1430   1.291   2.088   0.469
  477SOL    HW2 1431   1.236   2.226   0.547
  478SOL     OW 1432   0.542   2.589   0.715
  478SOL    HW1 1433   0.606   2.666   0.699
  478SOL    HW2 1434   0.497   2.562   0.627
  479SOL     OW 1435   1.719   2.207   1.688
  479SOL    HW1 1436   1.747   2.218   1.590
  479SOL    HW2 1437   1.636   2.147   1.697
  480SOL     OW 1438   1.727   2.766   1.476
  480SOL    HW1 1439   1.728   2.868   1.486
  480SOL    HW2 1440   1.715   2.741   1.378
  481SOL     OW 1441   0.881   2.837   0.868
  481SOL    HW1 1442   0.922   2.754   0.909
  481SOL    HW2 1443   0.836   2.896   0.939
  482SOL     OW 1444   1.049   2.806   0.031
  482SOL    HW1 1445   1.079   2.886   3.075
  482SOL    HW2 1446   1.127   2.740   0.037
  483SOL     OW 1447   0.040   3.083   0.500
  483SOL    HW1 1448   3.077   3.035   0.563
  483SOL    HW2 1449   0.124   0.014   0.549
  484SOL     OW 1450   1.810   2.034   1.245
  484SOL    HW1 1451   1.820   1.937   1.276
  484SOL    HW2 1452   1.819   2.040   1.144
  485SOL     OW 1453   0.441   2.254   0.530
  485SOL    HW1 1454   0.468   2.190   0.456
  485SOL    HW2 1455   0.370   2.216   0.592
  486SOL     OW 1456   0.342   2.400   1.295
  486SOL    HW1 1457   0.391   2.333   1.354
  486SOL    HW2 1458   0.336   2.368   1.198
  487SOL     OW 1459   1.424   2.108   1.119
  487SOL    HW1 1460   1.440   2.009   1.136
  487SOL    HW2 1461   1.370   2.151   1.195
  488SOL     OW 1462   1.019   1.871   1.117
  488SOL    HW1 1463   0.959   1.804   1.070
  488SOL    HW2 1464   1.115   1.834   1.121
  489SOL     OW 1465   0.775   0.017   0.245
  489SOL    HW1 1466   0.755   3.047   0.316
  489SOL    HW2 1467   0.824   0.096   0.285
  490SOL     OW 1468   1.354   1.926   0.196
  490SOL    HW1 1469   1.354   1.835   0.150
  490SOL    HW2 1470   1.266   1.975   0.181
  491SOL     OW 1471   1.246   2.329   0.676
  491SOL    HW1 1472   1.204   2.422   0.679
  491SOL    HW2 1473   1.266   2.296   0.771
  492SOL     OW 1474   1.584   2.069   0.897
  492SOL    HW1 1475   1.528   2.097   0.978
  492SOL    HW2 1476   1.581   2.141   0.824
  493SOL     OW 1477   0.034   2.933   0.264
  493SOL    HW1 1478   0.127   2.892   0.259
  493SOL    HW2 1479   0.024   2.992   0.347
  494SOL     OW 1480   0.213   2.509   2.009
  494SOL    HW1 1481   0.127   2.477   2.055
  494SOL    HW2 1482   0.194   2.547   1.917
  495SOL     OW 1483   0.234   2.090   2.834
  495SOL    HW1 1484   0.285   2.083   2.922
  495SOL    HW2 1485   0.174   2.008   2.821
  496SOL     OW 1486   0.008   2.318   2.474
  496SOL    HW1 1487   3.062   2.399   2.516
  496SOL    HW2 1488   3.039   2.249   2.445
  497SOL     OW 1489   1.127   2.587   2.526
  497SOL    HW1 1490   1.184   2.672   2.525
  497SOL    HW2 1491   1.073   2.583   2.613
  498SOL     OW 1492   1.784   2.425   2.074
  498SOL    HW1 1493   1.742   2.435   1.981
  498SOL    HW2 1494   1.734   2.352   2.125
  499SOL     OW 1495   0.704   2.917   2.875
  499SOL    HW1 1496   0.732   2.935   2.972
  499SOL    HW2 1497   0.681   3.003   2.826
  500SOL     OW 1498   0.686   2.829   2.474
  500SOL    HW1 1499   0.765   2.827   2.539
  500SOL    HW2 1500   0.611   2.887   2.511
  501SOL     OW 1501   1.626   2.313   2.600
  501SOL    HW1 1502   1.598   2.357   2.512
  501SOL    HW2 1503   1.588   2.366   2.679
  502SOL     OW 1504   0.247   2.958   2.763
  502SOL    HW1 1505   0.252   2.911   2.853
  502SOL    HW2 1506   0.177   3.033   2.767
  503SOL     OW 1507   0.510   2.917   2.004
  503SOL    HW1 1508   0.560   2.976   1.938
  503SOL    HW2 1509   0.573   2.885   2.079
  504SOL     OW 1510   0.154   2.540   2.370
  504SOL    HW1 1511   0.108   2.454   2.398
  504SOL    HW2 1512   0.139   2.615   2.438
  505SOL     OW 1513   1.697   2.776   2.483
  505SOL    HW1 1514   1.747   2.708   2.426
  505SOL    HW2 1515   1.679   2.861   2.429
  506SOL     OW 1516   1.676   2.994   2.310
  506SOL    HW1 1517   1.761   2.948   2.273
  506SOL    HW2 1518   1.694   3.094   2.322
  507SOL     OW 1519   0.641   0.032   2.709
  507SOL    HW1 1520   0.568   3.076   2.664
  507SOL    HW2 1521   0.703   0.072   2.639
  508SOL     OW 1522   0.842   1.888   2.366
  508SOL    HW1 1523   0.891   1.973   2.336
  508SOL    HW2 1524   0.741   1.903   2.368
  509SOL     OW 1525   0.222   2.839   3.009
  509SOL    HW1 1526   0.298   2.784   3.048
  509SOL    HW2 1527   0.143   2.780   2.984
  510SOL     OW 1528   1.556   2.909   2.077
  510SOL    HW1 1529   1.485   2.839   2.099
  510SOL    HW2 1530   1.607   2.937   2.161
  511SOL     OW 1531   0.594   2.567   2.134
  511SOL    HW1 1532   0.626   2.663   2.139
  511SOL    HW2 1533   0.523   2.550   2.206
  512SOL     OW 1534   1.291   2.261   2.793
  512SOL    HW1 1535   1.196   2.227   2.781
  512SOL    HW2 1536   1.346   2.192   2.844
  513SOL     OW 1537   1.044   2.550   2.266
  513SOL    HW1 1538   1.070   2.562   2.364
  513SOL    HW2 1539   0.956   2.498   2.258
  514SOL     OW 1540   0.115   2.718   2.579
  514SOL    HW1 1541   0.191   2.683   2.638
  514SOL    HW2 1542   0.114   2.820   2.581
  515SOL     OW 1543   0.859   2.198   2.061
  515SOL    HW1 1544   0.919   2.246   1.993
  515SOL    HW2 1545   0.803   2.126   2.017
  516SOL     OW 1546   1.426   3.008   2.430
  516SOL    HW1 1547   1.513   2.985   2.382
  516SOL    HW2 1548   1.393   3.100   2.399
  517SOL     OW 1549   0.589   2.033   2.837
  517SOL    HW1 1550   0.594   2.095   2.919
  517SOL    HW2 1551   0.588   2.088   2.752
  518SOL     OW 1552   1.821   2.909   2.687
  518SOL    HW1 1553   1.766   2.858   2.618
  518SOL    HW2 1554   1.765   2.930   2.770
  519SOL     OW 1555   0.271   2.766   2.117
  519SOL    HW1 1556   0.344   2.805   2.059
  519SOL    HW2 1557   0.256   2.667   2.096
  520SOL     OW 1558   1.489   2.630   2.593
  520SOL    HW1 1559   1.501   2.573   2.677
  520SOL    HW2 1560   1.573   2.684   2.571
  521SOL     OW 1561   1.390   1.952   2.320
  521SOL    HW1 1562   1.387   1.930   2.220
  521SOL    HW2 1563   1.483   1.931   2.359
  522SOL     OW 1564   0.416   2.513   2.325
  522SOL    HW1 1565   0.427   2.413   2.346
  522SOL    HW2 1566   0.317   2.539   2.332
  523SOL     OW 1567   0.682   1.985   1.972
  523SOL    HW1 1568   0.743   1.908   1.998
  523SOL    HW2 1569   0.610   1.952   1.907
  524SOL     OW 1570   0.880   2.339   2.723
  524SOL    HW1 1571   0.854   2.329   2.624
  524SOL    HW2 1572   0.941   2.261   2.749
  525SOL     OW 1573   0.574   1.930   2.347
  525SOL    HW1 1574   0.499   1.928   2.416
  525SOL    HW2 1575   0.562   2.009   2.283
  526SOL     OW 1576   0.270   1.904   2.053
  526SOL    HW1 1577   0.306   1.987   2.007
  526SOL    HW2 1578   0.348   1.846   2.088
  527SOL     OW 1579   0.972   2.112   2.295
  527SOL    HW1 1580   0.935   2.144   2.205
  527SOL    HW2 1581   1.072   2.133   2.302
  528SOL     OW 1582   0.453   2.965   2.586
  528SOL    HW1 1583   0.385   2.950   2.661
  528SOL    HW2 1584   0.418   2.926   2.498
  529SOL     OW 1585   1.024   2.357   1.909
  529SOL    HW1 1586   0.980   2.446   1.885
  529SOL    HW2 1587   1.095   2.369   1.982
  530SOL     OW 1588   0.847   2.295   2.462
  530SOL    HW1 1589   0.810   2.358   2.390
  530SOL    HW2 1590   0.897   2.218   2.417
  531SOL     OW 1591   1.016   1.909   2.586
  531SOL    HW1 1592   0.953   1.910   2.506
  531SOL    HW2 1593   0.992   1.832   2.649
  532SOL     OW 1594   1.525   3.042   2.684
  532SOL    HW1 1595   1.479   3.022   2.596
  532SOL    HW2 1596   1.540   0.042   2.695
  533SOL     OW 1597   1.510   2.449   2.808
  533SOL    HW1 1598   1.424   2.394   2.817
  533SOL    HW2 1599   1.565   2.448   2.894
  534SOL     OW 1600   1.801   2.602   2.278
  534SOL    HW1 1601   1.877   2.567   2.337
  534SOL    HW2 1602   1.795   2.546   2.193
  535SOL     OW 1603   1.381   2.441   1.915
  535SOL    HW1 1604   1.330   2.410   1.998
  535SOL    HW2 1605   1.482   2.429   1.925
  536SOL     OW 1606   0.532   2.125   2.161
  536SOL    HW1 1607   0.588   2.074   2.092
  536SOL    HW2 1608   0.497   2.212   2.120
  537SOL     OW 1609   1.146   3.009   2.974
  537SOL    HW1 1610   1.098   3.096   2.999
  537SOL    HW2 1611   1.137   2.990   2.874
  538SOL     OW 1612   1.629   2.938   2.907
  538SOL    HW1 1613   1.576   2.976   2.985
  538SOL    HW2 1614   1.586   2.969   2.819
  539SOL     OW 1615   0.695   2.830   2.193
  539SOL    HW1 1616   0.689   2.828   2.295
  539SOL    HW2 1617   0.784   2.792   2.160
  540SOL     OW 1618   0.422   2.682   0.016
  540SOL    HW1 1619   0.484   2.730   0.081
  540SOL    HW2 1620   0.368   2.609   0.063
  541SOL     OW 1621   0.346   2.898   2.348
  541SOL    HW1 1622   0.328   2.993   2.317
  541SOL    HW2 1623   0.319   2.830   2.276
  542SOL     OW 1624   0.539   2.371   2.712
  542SOL    HW1 1625   0.555   2.440   2.639
  542SOL    HW2 1626   0.603   2.384   2.789
  543SOL     OW 1627   1.574   2.464   2.375
  543SOL    HW1 1628   1.511   2.520   2.432
  543SOL    HW2 1629   1.647   2.522   2.334
  544SOL     OW 1630   0.562   2.678   2.881
  544SOL    HW1 1631   0.608   2.768   2.869
  544SOL    HW2 1632   0.505   2.677   2.966
  545SOL     OW 1633   1.203   2.379   2.120
  545SOL    HW1 1634   1.225   2.300   2.181
  545SOL    HW2 1635   1.152   2.450   2.174
  546SOL     OW 1636   0.321   2.049   0.011
  546SOL    HW1 1637   0.245   2.115   0.028
  546SOL    HW2 1638   0.284   1.954   3.099
  547SOL     OW 1639   0.036   0.070   3.078
  547SOL    HW1 1640   0.120   0.031   0.023
  547SOL    HW2 1641   0.015   0.162   0.018
  548SOL     OW 1642   0.720   2.454   2.915
  548SOL    HW1 1643   0.781   2.422   2.839
  548SOL    HW2 1644   0.667   2.538   2.891
  549SOL     OW 1645   0.357   1.924   2.511
  549SOL    HW1 1646   0.304   2.011   2.521
  549SOL    HW2 1647   0.377   1.884   2.603
  550SOL     OW 1648   1.616   2.251   2.201
  550SOL    HW1 1649   1.669   2.180   2.253
  550SOL    HW2 1650   1.579   2.322   2.265
  551SOL     OW 1651   0.990   2.578   2.766
  551SOL    HW1 1652   1.007   2.579   2.867
  551SOL    HW2 1653   0.951   2.488   2.739
  552SOL     OW 1654   1.513   2.115   1.979
  552SOL    HW1 1655   1.461   2.034   2.015
  552SOL    HW2 1656   1.550   2.171   2.056
  553SOL     OW 1657   1.280   2.691   1.879
  553SOL    HW1 1658   1.310   2.594   1.887
  553SOL    HW2 1659   1.316   2.733   1.793
  554SOL     OW 1660   0.291   2.620   2.759
  554SOL    HW1 1661   0.386   2.654   2.773
  554SOL    HW2 1662   0.289   2.518   2.768
  555SOL     OW 1663   0.291   2.351   2.805
  555SOL    HW1 1664   0.263   2.253   2.816
  555SOL    HW2 1665   0.386   2.355   2.766
  556SOL     OW 1666   1.147   2.104   0.185
  556SOL    HW1 1667   1.169   2.125   0.282
  556SOL    HW2 1668   1.129   2.189   0.132
  557SOL     OW 1669   0.952   2.551   3.043
  557SOL    HW1 1670   0.955   2.646   3.080
  557SOL    HW2 1671   0.858   2.523   3.017
  558SOL     OW 1672   0.143   2.436   3.012
  558SOL    HW1 1673   0.202   2.402   2.935
  558SOL    HW2 1674   0.090   2.518   2.981
  559SOL     OW 1675   0.810   2.421   2.216
  559SOL    HW1 1676   0.821   2.336   2.160
  559SOL    HW2 1677   0.729   2.475   2.185
  560SOL     OW 1678   1.698   2.441   3.031
  560SOL    HW1 1679   1.691   2.352   3.081
  560SOL    HW2 1680   1.795   2.454   2.999
  561SOL     OW 1681   0.609   2.226   3.037
  561SOL    HW1 1682   0.553   2.256   0.017
  561SOL    HW2 1683   0.659   2.307   2.998
  562SOL     OW 1684   0.443   2.353   2.025
  562SOL    HW1 1685   0.516   2.420   2.047
  562SOL    HW2 1686   0.353   2.402   2.024
  563SOL     OW 1687   1.408   3.045   3.073
  563SOL    HW1 1688   1.432   2.982   0.050
  563SOL    HW2 1689   1.316   3.022   3.034
  564SOL     OW 1690   1.359   2.738   2.138
  564SOL    HW1 1691   1.294   2.706   2.209
  564SOL    HW2 1692   1.324   2.719   2.044
  565SOL     OW 1693   0.052   0.049   2.807
  565SOL    HW1 1694   0.051   0.051   2.909
  565SOL    HW2 1695   3.057   0.051   2.770
  566SOL     OW 1696   1.776   2.066   2.321
  566SOL    HW1 1697   1.830   2.042   2.237
  566SOL    HW2 1698   1.726   1.984   2.357
  567SOL     OW 1699   1.288   2.805   2.546
  567SOL    HW1 1700   1.361   2.737   2.570
  567SOL    HW2 1701   1.328   2.883   2.494
  568SOL     OW 1702   1.852   2.013   2.829
  568SOL    HW1 1703   1.888   1.922   2.800
  568SOL    HW2 1704   1.763   2.034   2.783
  569SOL     OW 1705   0.223   2.155   2.552
  569SOL    HW1 1706   0.149   2.219   2.522
  569SOL    HW2 1707   0.225   2.147   2.654
  570SOL     OW 1708   0.792   2.933   0.039
  570SOL    HW1 1709   0.880   2.883   0.037
  570SOL    HW2 1710   0.793   3.007   0.109
  571SOL     OW 1711   0.925   2.728   2.091
  571SOL    HW1 1712   0.991   2.795   2.050
  571SOL    HW2 1713   0.973   2.666   2.156
  572SOL     OW 1714   1.106   2.944   2.706
  572SOL    HW1 1715   1.016   2.897   2.692
  572SOL    HW2 1716   1.179   2.898   2.651
  573SOL     OW 1717   1.046   2.123   2.769
  573SOL    HW1 1718   1.043   2.058   2.690
  573SOL    HW2 1719   1.025   2.075   2.856
  574SOL     OW 1720   1.715   2.214   0.085
  574SOL    HW1 1721   1.722   2.230   0.186
  574SOL    HW2 1722   1.760   2.127   0.057
  575SOL     OW 1723   0.086   2.172   1.894
  575SOL    HW1 1724   0.002   2.125   1.862
  575SOL    HW2 1725   0.110   2.248   1.830
  576SOL     OW 1726   0.025   2.119   2.158
  576SOL    HW1 1727   0.051   2.143   2.062
  576SOL    HW2 1728   0.086   2.045   2.192
  577SOL     OW 1729   1.789   2.730   2.988
  577SOL    HW1 1730   1.731   2.652   3.016
  577SOL    HW2 1731   1.732   2.809   2.956
  578SOL     OW 1732   1.237   2.182   2.312
  578SOL    HW1 1733   1.297   2.100   2.318
  578SOL    HW2 1734   1.251   2.243   2.394
  579SOL     OW 1735   0.578   2.576   2.535
  579SOL    HW1 1736   0.625   2.665   2.518
  579SOL    HW2 1737   0.515   2.554   2.458
  580SOL     OW 1738   0.868   2.810   2.684
  580SOL    HW1 1739   0.907   2.720   2.711
  580SOL    HW2 1740   0.806   2.847   2.757
  581SOL     OW 1741   1.104   2.883   1.962
  581SOL    HW1 1742   1.059   2.932   1.883
  581SOL    HW2 1743   1.171   2.814   1.928
  582SOL     OW 1744   0.049   3.090   2.354
  582SOL    HW1 1745   3.088   3.055   2.428
  582SOL    HW2 1746   0.141   0.013   2.390
  583SOL     OW 1747   1.812   1.974   3.096
  583SOL    HW1 1748   1.791   1.875   3.087
  583SOL    HW2 1749   1.835   2.011   3.003
  584SOL     OW 1750   0.422   2.256   2.382
  584SOL    HW1 1751   0.460   2.190   2.314
  584SOL    HW2 1752   0.356   2.212   2.446
  585SOL     OW 1753   1.432   2.075   2.934
  585SOL    HW1 1754   1.453   1.976   2.943
  585SOL    HW2 1755   1.432   2.119   3.027
  586SOL     OW 1756   0.775   3.091   2.124
  586SOL    HW1 1757   0.744   3.000   2.158
  586SOL    HW2 1758   0.847   0.030   2.184
  587SOL     OW 1759   1.383   1.886   2.054
  587SOL    HW1 1760   1.434   1.814   2.003
  587SOL    HW2 1761   1.286   1.856   2.068
  588SOL     OW 1762   1.265   2.344   2.527
  588SOL    HW1 1763   1.216   2.434   2.524
  588SOL    HW2 1764   1.285   2.316   2.623
  589SOL     OW 1765   1.611   2.069   2.725
  589SOL    HW1 1766   1.540   2.079   2.798
  589SOL    HW2 1767   1.614   2.152   2.665
  590SOL     OW 1768   0.037   2.914   2.126
  590SOL    HW1 1769   0.118   2.852   2.128
  590SOL    HW2 1770   0.036   2.975   2.209
  591SOL     OW 1771   2.100   0.659   0.110
  591SOL    HW1 1772   2.039   0.680   0.188
  591SOL    HW2 1773   2.044   0.629   0.029
  592SOL     OW 1774   2.043   0.328   1.026
  592SOL    HW1 1775   2.091   0.281   1.102
  592SOL    HW2 1776   1.967   0.268   0.991
  593SOL     OW 1777   1.841   0.433   0.650
  593SOL    HW1 1778   1.751   0.447   0.696
  593SOL    HW2 1779   1.831   0.368   0.572
  594SOL     OW 1780   2.437   1.327   1.223
  594SOL    HW1 1781   2.350   1.324   1.169
  594SOL    HW2 1782   2.454   1.423   1.253
  595SOL     OW 1783   2.966   0.806   0.691
  595SOL    HW1 1784   3.065   0.823   0.712
  595SOL    HW2 1785   2.914   0.794   0.778
  596SOL     OW 1786   2.568   1.151   1.050
  596SOL    HW1 1787   2.518   1.190   1.130
  596SOL    HW2 1788   2.603   1.229   0.994
  597SOL     OW 1789   2.746   0.735   1.820
  597SOL    HW1 1790   2.738   0.795   1.902
  597SOL    HW2 1791   2.776   0.789   1.739
  598SOL     OW 1792   2.547   0.981   0.658
  598SOL    HW1 1793   2.613   0.985   0.735
  598SOL    HW2 1794   2.471   1.049   0.671
  599SOL     OW 1795   2.559   1.145   1.838
  599SOL    HW1 1796   2.614   1.221   1.880
  599SOL    HW2 1797   2.484   1.182   1.779
  600SOL     OW 1798   2.207   1.393   1.073
  600SOL    HW1 1799   2.128   1.339   1.038
  600SOL    HW2 1800   2.250   1.450   1.000
  601SOL     OW 1801   2.341   0.401   1.434
  601SOL    HW1 1802   2.423   0.342   1.446
  601SOL    HW2 1803   2.261   0.364   1.485
  602SOL     OW 1804   2.088   1.723   0.495
  602SOL    HW1 1805   2.111   1.802   0.556
  602SOL    HW2 1806   2.166   1.705   0.432
  603SOL     OW 1807   2.951   1.372   1.695
  603SOL    HW1 1808   2.995   1.366   1.787
  603SOL    HW2 1809   2.901   1.286   1.676
  604SOL     OW 1810   2.070   1.452   0.532
  604SOL    HW1 1811   2.066   1.553   0.546
  604SOL    HW2 1812   2.039   1.399   0.613
  605SOL     OW 1813   2.162   1.089   0.879
  605SOL    HW1 1814   2.174   0.991   0.905
  605SOL    HW2 1815   2.105   1.140   0.947
  606SOL     OW 1816   2.426   1.837   1.416
  606SOL    HW1 1817   2.347   1.804   1.471
  606SOL    HW2 1818   2.472   1.915   1.463
  607SOL     OW 1819   2.439   0.962   0.213
  607SOL    HW1 1820   2.506   0.967   0.136
  607SOL    HW2 1821   2.482   1.004   0.296
  608SOL     OW 1822   1.958   0.687   0.590
  608SOL    HW1 1823   1.920   0.594   0.610
  608SOL    HW2 1824   1.963   0.744   0.675
  609SOL     OW 1825   1.955   1.577   0.109
  609SOL    HW1 1826   1.940   1.476   0.118
  609SOL    HW2 1827   1.921   1.626   0.193
  610SOL     OW 1828   1.973   0.752   1.566
  610SOL    HW1 1829   2.057   0.809   1.565
  610SOL    HW2 1830   1.892   0.808   1.541
  611SOL     OW 1831   2.458   1.406   0.707
  611SOL    HW1 1832   2.420   1.311   0.711
  611SOL    HW2 1833   2.456   1.438   0.609
  612SOL     OW 1834   2.762   0.155   0.659
  612SOL    HW1 1835   2.770   0.154   0.557
  612SOL    HW2 1836   2.672   0.117   0.690
  613SOL     OW 1837   2.061   0.954   1.324
  613SOL    HW1 1838   2.157   0.923   1.306
  613SOL    HW2 1839   2.002   0.935   1.243
  614SOL     OW 1840   2.209   0.291   1.870
  614SOL    HW1 1841   2.247   0.369   1.924
  614SOL    HW2 1842   2.107   0.293   1.871
  615SOL     OW 1843   2.447   0.709   0.334
  615SOL    HW1 1844   2.455   0.801   0.291
  615SOL    HW2 1845   2.370   0.707   0.401
  616SOL     OW 1846   2.654   0.598   1.442
  616SOL    HW1 1847   2.618   0.571   1.533
  616SOL    HW2 1848   2.627   0.530   1.369
  617SOL     OW 1849   2.824   0.877   1.593
  617SOL    HW1 1850   2.879   0.805   1.546
  617SOL    HW2 1851   2.772   0.931   1.523
  618SOL     OW 1852   2.874   0.400   1.267
  618SOL    HW1 1853   2.773   0.412   1.253
  618SOL    HW2 1854   2.924   0.418   1.181
  619SOL     OW 1855   2.906   0.736   0.433
  619SOL    HW1 1856   2.925   0.758   0.531
  619SOL    HW2 1857   2.823   0.677   0.424
  620SOL     OW 1858   1.958   0.851   0.806
  620SOL    HW1 1859   2.050   0.835   0.849
  620SOL    HW2 1860   1.907   0.921   0.859
  621SOL     OW 1861   1.973   1.882   1.608
  621SOL    HW1 1862   1.986   1.843   1.702
  621SOL    HW2 1863   1.877   1.867   1.578
  622SOL     OW 1864   2.752   0.384   0.193
  622SOL    HW1 1865   2.819   0.450   0.153
  622SOL    HW2 1866   2.731   0.311   0.124
  623SOL     OW 1867   2.411   0.247   0.920
  623SOL    HW1 1868   2.423   0.242   1.021
  623SOL    HW2 1869   2.414   0.343   0.886
  624SOL     OW 1870   2.804   1.476   0.469
  624SOL    HW1 1871   2.776   1.552   0.406
  624SOL    HW2 1872   2.779   1.499   0.565
  625SOL     OW 1873   2.215   1.804   0.891
  625SOL    HW1 1874   2.257   1.710   0.893
  625SOL    HW2 1875   2.283   1.874   0.920
  626SOL     OW 1876   3.051   1.563   1.511
  626SOL    HW1 1877   3.031   1.490   1.580
  626SOL    HW2 1878   2.964   1.606   1.478
  627SOL     OW 1879   2.151   1.008   0.233
  627SOL    HW1 1880   2.252   1.000   0.224
  627SOL    HW2 1881   2.106   0.999   0.142
  628SOL     OW 1882   2.342   1.266   1.711
  628SOL    HW1 1883   2.307   1.273   1.615
  628SOL    HW2 1884   2.262   1.270   1.774
  629SOL     OW 1885   2.088   0.302   1.508
  629SOL    HW1 1886   2.047   0.387   1.468
  629SOL    HW2 1887   2.052   0.287   1.602
  630SOL     OW 1888   2.318   1.722   0.345
  630SOL    HW1 1889   2.365   1.789   0.407
  630SOL    HW2 1890   2.378   1.697   0.266
  631SOL     OW 1891   2.086   1.787   1.211
  631SOL    HW1 1892   2.139   1.706   1.243
  631SOL    HW2 1893   2.049   1.773   1.117
  632SOL     OW 1894   2.802   1.701   0.900
  632SOL    HW1 1895   2.878   1.651   0.946
  632SOL    HW2 1896   2.767   1.648   0.819
  633SOL     OW 1897   2.230   0.692   0.503
  633SOL    HW1 1898   2.246   0.592   0.519
  633SOL    HW2 1899   2.132   0.714   0.522
  634SOL     OW 1900   2.431   0.140   0.130
  634SOL    HW1 1901   2.510   0.093   0.175
  634SOL    HW2 1902   2.462   0.209   0.062
  635SOL     OW 1903   2.624   0.290   1.723
  635SOL    HW1 1904   2.715   0.243   1.713
  635SOL    HW2 1905   2.576   0.254   1.805
  636SOL     OW 1906   2.703   1.529   1.162
  636SOL    HW1 1907   2.669   1.497   1.072
  636SOL    HW2 1908   2.772   1.462   1.198
  637SOL     OW 1909   2.641   1.383   0.917
  637SOL    HW1 1910   2.733   1.370   0.873
  637SOL    HW2 1911   2.569   1.394   0.846
  638SOL     OW 1912   2.796   0.521   0.884
  638SOL    HW1 1913   2.799   0.506   0.783
  638SOL    HW2 1914   2.822   0.435   0.932
  639SOL     OW 1915   2.323   0.074   0.472
  639SOL    HW1 1916   2.250   0.085   0.542
  639SOL    HW2 1917   2.340   0.161   0.422
  640SOL     OW 1918   0.137   1.215  -0.002
  640SOL    HW1 1919   0.154   1.115   0.003
  640SOL    HW2 1920   0.063   1.242   0.063
  641SOL     OW 1921   2.166   0.072   0.173
  641SOL    HW1 1922   2.265   0.094   0.161
  641SOL    HW2 1923   2.154   3.073   0.196
  642SOL     OW 1924   2.813   0.202   0.388
  642SOL    HW1 1925   2.779   0.277   0.327
  642SOL    HW2 1926   2.915   0.207   0.391
  643SOL     OW 1927   2.924   0.678   1.433
  643SOL    HW1 1928   2.837   0.624   1.437
  643SOL    HW2 1929   3.005   0.619   1.414
  644SOL     OW 1930   3.074   1.519   0.781
  644SOL    HW1 1931   3.086   1.615   0.748
  644SOL    HW2 1932   0.063   1.473   0.796
  645SOL     OW 1933   2.342   1.160   0.690
  645SOL    HW1 1934   2.281   1.134   0.768
  645SOL    HW2 1935   2.289   1.158   0.603
  646SOL     OW 1936   0.004   1.778   0.691
  646SOL    HW1 1937   0.057   1.778   0.605
  646SOL    HW2 1938   3.023   1.841   0.687
  647SOL     OW 1939   2.937   0.547   0.084
  647SOL    HW1 1940   2.897   0.628   0.035
  647SOL    HW2 1941   3.003   0.577   0.156
  648SOL     OW 1942   1.990   0.539   1.397
  648SOL    HW1 1943   2.079   0.558   1.351
  648SOL    HW2 1944   1.971   0.614   1.464
  649SOL     OW 1945   2.433   0.225   1.201
  649SOL    HW1 1946   2.477   0.210   1.292
  649SOL    HW2 1947   2.332   0.222   1.211
  650SOL     OW 1948   2.816   0.445   0.617
  650SOL    HW1 1949   2.762   0.491   0.543
  650SOL    HW2 1950   2.788   0.348   0.628
  651SOL     OW 1951   2.958   0.063   0.828
  651SOL    HW1 1952   2.885   0.104   0.767
  651SOL    HW2 1953   2.989   3.075   0.787
  652SOL     OW 1954   2.315   1.448   0.114
  652SOL    HW1 1955   2.248   1.418   0.185
  652SOL    HW2 1956   2.275   1.439   0.021
  653SOL     OW 1957   2.353   0.304   0.329
  653SOL    HW1 1958   2.384   0.236   0.259
  653SOL    HW2 1959   2.338   0.394   0.283
  654SOL     OW 1960   2.868   1.335   1.259
  654SOL    HW1 1961   2.797   1.307   1.327
  654SOL    HW2 1962   2.963   1.320   1.294
  655SOL     OW 1963   2.954   1.209   1.025
  655SOL    HW1 1964   2.913   1.251   1.108
  655SOL    HW2 1965   2.919   1.254   0.940
  656SOL     OW 1966   2.764   0.059   1.412
  656SOL    HW1 1967   2.792   0.065   1.314
  656SOL    HW2 1968   2.833   0.104   1.472
  657SOL     OW 1969   2.828   1.110   1.737
  657SOL    HW1 1970   2.731   1.122   1.767
  657SOL    HW2 1971   2.837   1.026   1.679
  658SOL     OW 1972   2.617   1.052   0.401
  658SOL    HW1 1973   2.599   1.022   0.498
  658SOL    HW2 1974   2.709   1.019   0.369
  659SOL     OW 1975   2.305   0.842   1.276
  659SOL    HW1 1976   2.380   0.848   1.346
  659SOL    HW2 1977   2.269   0.746   1.273
  660SOL     OW 1978   1.926   1.559   1.352
  660SOL    HW1 1979   1.882   1.630   1.294
  660SOL    HW2 1980   2.028   1.563   1.345
  661SOL     OW 1981   2.178   1.153   0.469
  661SOL    HW1 1982   2.175   1.239   0.414
  661SOL    HW2 1983   2.169   1.074   0.406
  662SOL     OW 1984   2.421   0.514   0.858
  662SOL    HW1 1985   2.421   0.576   0.776
  662SOL    HW2 1986   2.486   0.552   0.927
  663SOL     OW 1987   3.050   1.440   0.368
  663SOL    HW1 1988   0.031   1.438   0.431
  663SOL    HW2 1989   2.962   1.443   0.421
  664SOL     OW 1990   2.197   1.543   1.295
  664SOL    HW1 1991   2.192   1.482   1.212
  664SOL    HW2 1992   2.295   1.569   1.311
  665SOL     OW 1993   2.343   0.716   1.652
  665SOL    HW1 1994   2.383   0.772   1.577
  665SOL    HW2 1995   2.412   0.646   1.681
  666SOL     OW 1996   2.858   0.152   1.714
  666SOL    HW1 1997   2.932   0.221   1.725
  666SOL    HW2 1998   2.891   0.058   1.733
  667SOL     OW 1999   2.348   0.074   1.793
  667SOL    HW1 2000   2.314   0.043   1.701
  667SOL    HW2 2001   2.292   0.153   1.824
  668SOL     OW 2002   2.452   0.890   1.048
  668SOL    HW1 2003   2.492   0.983   1.041
  668SOL    HW2 2004   2.397   0.880   1.133
  669SOL     OW 2005   0.030   0.848   1.096
  669SOL    HW1 2006   3.053   0.887   1.042
  669SOL    HW2 2007   0.022   0.747   1.104
  670SOL     OW 2008   0.000   0.603   0.295
  670SOL    HW1 2009   0.028   0.527   0.356
  670SOL    HW2 2010   3.036   0.665   0.344
  671SOL     OW 2011   2.159   0.197   1.242
  671SOL    HW1 2012   2.129   0.235   1.332
  671SOL    HW2 2013   2.151   0.095   1.242
  672SOL     OW 2014   1.922   1.296   1.276
  672SOL    HW1 2015   1.941   1.236   1.356
  672SOL    HW2 2016   1.913   1.394   1.304
  673SOL     OW 2017   2.584   0.641   1.035
  673SOL    HW1 2018   2.663   0.625   0.972
  673SOL    HW2 2019   2.546   0.736   1.026
  674SOL     OW 2020   2.142   0.089   0.675
  674SOL    HW1 2021   2.130   0.186   0.707
  674SOL    HW2 2022   2.202   0.036   0.738
  675SOL     OW 2023   2.859   0.777   0.950
  675SOL    HW1 2024   2.846   0.789   1.051
  675SOL    HW2 2025   2.852   0.677   0.927
  676SOL     OW 2026   2.797   1.604   1.693
  676SOL    HW1 2027   2.797   1.633   1.595
  676SOL    HW2 2028   2.850   1.518   1.704
  677SOL     OW 2029   2.213   0.904   1.804
  677SOL    HW1 2030   2.275   0.936   1.878
  677SOL    HW2 2031   2.259   0.832   1.747
  678SOL     OW 2032   2.876   1.339   0.796
  678SOL    HW1 2033   2.891   1.257   0.737
  678SOL    HW2 2034   2.951   1.408   0.783
  679SOL     OW 2035   2.200   0.821   0.941
  679SOL    HW1 2036   2.298   0.846   0.956
  679SOL    HW2 2037   2.185   0.723   0.966
  680SOL     OW 2038   2.201   0.550   1.007
  680SOL    HW1 2039   2.138   0.470   1.006
  680SOL    HW2 2040   2.280   0.535   0.943
  681SOL     OW 2041   3.031   0.365   1.732
  681SOL    HW1 2042   2.962   0.418   1.786
  681SOL    HW2 2043   0.017   0.420   1.724
  682SOL     OW 2044   3.000   0.252   1.453
  682SOL    HW1 2045   2.997   0.295   1.545
  682SOL    HW2 2046   2.952   0.310   1.383
  683SOL     OW 2047   1.880   1.309   0.177
  683SOL    HW1 2048   1.789   1.337   0.139
  683SOL    HW2 2049   1.874   1.215   0.217
  684SOL     OW 2050   1.957   1.762   0.965
  684SOL    HW1 2051   1.912   1.685   0.915
  684SOL    HW2 2052   2.051   1.780   0.927
  685SOL     OW 2053   2.342   1.562   0.900
  685SOL    HW1 2054   2.419   1.622   0.933
  685SOL    HW2 2055   2.375   1.502   0.824
  686SOL     OW 2056   2.797   0.797   1.215
  686SOL    HW1 2057   2.862   0.768   1.288
  686SOL    HW2 2058   2.710   0.745   1.221
  687SOL     OW 2059   1.875   0.526   1.142
  687SOL    HW1 2060   1.929   0.461   1.086
  687SOL    HW2 2061   1.922   0.545   1.231
  688SOL     OW 2062   2.071   0.584   1.762
  688SOL    HW1 2063   2.170   0.588   1.740
  688SOL    HW2 2064   2.018   0.644   1.698
  689SOL     OW 2065   2.689   0.568   0.395
  689SOL    HW1 2066   2.700   0.501   0.319
  689SOL    HW2 2067   2.601   0.619   0.385
  690SOL     OW 2068   2.097   1.532   1.714
  690SOL    HW1 2069   2.075   1.611   1.776
  690SOL    HW2 2070   2.111   1.446   1.767
  691SOL     OW 2071   2.605   0.445   1.220
  691SOL    HW1 2072   2.540   0.368   1.206
  691SOL    HW2 2073   2.593   0.518   1.149
  692SOL     OW 2074   2.814   1.680   1.430
  692SOL    HW1 2075   2.776   1.635   1.347
  692SOL    HW2 2076   2.804   1.781   1.425
  693SOL     OW 2077   2.334   0.524   0.171
  693SOL    HW1 2078   2.386   0.593   0.226
  693SOL    HW2 2079   2.244   0.562   0.142
  694SOL     OW 2080   1.978   1.140   1.498
  694SOL    HW1 2081   1.990   1.114   1.597
  694SOL    HW2 2082   2.012   1.065   1.436
  695SOL     OW 2083   3.058   1.751   1.131
  695SOL    HW1 2084   0.018   1.791   1.058
  695SOL    HW2 2085   0.014   1.694   1.195
  696SOL     OW 2086   1.984   1.230   1.024
  696SOL    HW1 2087   1.957   1.255   1.119
  696SOL    HW2 2088   1.910   1.176   0.979
  697SOL     OW 2089   2.555   1.673   1.780
  697SOL    HW1 2090   2.510   1.752   1.733
  697SOL    HW2 2091   2.651   1.659   1.748
  698SOL     OW 2092   2.749   0.147   0.038
  698SOL    HW1 2093   2.804   0.078   3.085
  698SOL    HW2 2094   2.713   0.104   0.123
  699SOL     OW 2095   2.015   1.761   1.847
  699SOL    HW1 2096   1.957   1.690   1.893
  699SOL    HW2 2097   2.067   1.814   1.917
  700SOL     OW 2098   2.640   1.281   1.408
  700SOL    HW1 2099   2.617   1.333   1.493
  700SOL    HW2 2100   2.563   1.289   1.341
  701SOL     OW 2101   2.492   1.647   0.152
  701SOL    HW1 2102   2.505   1.704   0.069
  701SOL    HW2 2103   2.433   1.566   0.132
  702SOL     OW 2104   2.084   0.341   0.748
  702SOL    HW1 2105   1.998   0.382   0.712
  702SOL    HW2 2106   2.085   0.343   0.850
  703SOL     OW 2107   2.697   1.015   1.397
  703SOL    HW1 2108   2.740   0.989   1.308
  703SOL    HW2 2109   2.678   1.115   1.402
  704SOL     OW 2110   2.856   0.968   0.295
  704SOL    HW1 2111   2.914   0.977   0.211
  704SOL    HW2 2112   2.878   0.882   0.345
  705SOL     OW 2113   2.212   1.306   1.479
  705SOL    HW1 2114   2.206   1.388   1.418
  705SOL    HW2 2115   2.126   1.252   1.478
  706SOL     OW 2116   2.895   1.092   0.685
  706SOL    HW1 2117   2.827   1.065   0.756
  706SOL    HW2 2118   2.933   1.009   0.640
  707SOL     OW 2119   2.870   0.279   0.992
  707SOL    HW1 2120   2.910   0.219   0.920
  707SOL    HW2 2121   2.845   0.223   1.074
  708SOL     OW 2122   2.462   1.486   0.452
  708SOL    HW1 2123   2.513   1.426   0.388
  708SOL    HW2 2124   2.393   1.542   0.404
  709SOL     OW 2125   2.127   1.361   0.290
  709SOL    HW1 2126   2.041   1.339   0.240
  709SOL    HW2 2127   2.106   1.407   0.380
  710SOL     OW 2128   1.992   1.062   1.760
  710SOL    HW1 2129   1.905   1.034   1.805
  710SOL    HW2 2130   2.069   0.997   1.781
  711SOL     OW 2131   2.550   0.223   1.463
  711SOL    HW1 2132   2.623   0.156   1.438
  711SOL    HW2 2133   2.562   0.252   1.560
  712SOL     OW 2134   1.902   0.153   0.241
  712SOL    HW1 2135   1.861   0.131   0.150
  712SOL    HW2 2136   2.002   0.136   0.239
  713SOL     OW 2137   2.507   0.828   1.453
  713SOL    HW1 2138   2.568   0.909   1.441
  713SOL    HW2 2139   2.562   0.742   1.450
  714SOL     OW 2140   2.567   0.557   1.698
  714SOL    HW1 2141   2.629   0.618   1.752
  714SOL    HW2 2142   2.587   0.458   1.715
  715SOL     OW 2143   2.217   1.752   1.578
  715SOL    HW1 2144   2.129   1.803   1.569
  715SOL    HW2 2145   2.198   1.657   1.611
  716SOL     OW 2146   2.432   0.728   0.686
  716SOL    HW1 2147   2.482   0.817   0.675
  716SOL    HW2 2148   2.354   0.722   0.620
  717SOL     OW 2149   2.742   1.314   0.063
  717SOL    HW1 2150   2.703   1.312   0.158
  717SOL    HW2 2151   2.683   1.370   0.002
  718SOL     OW 2152   2.533   1.747   0.952
  718SOL    HW1 2153   2.504   1.844   0.942
  718SOL    HW2 2154   2.632   1.734   0.932
  719SOL     OW 2155   2.718   0.998   0.869
  719SOL    HW1 2156   2.770   0.917   0.904
  719SOL    HW2 2157   2.674   1.049   0.946
  720SOL     OW 2158   2.996   0.987   0.060
  720SOL    HW1 2159   2.963   1.057   3.093
  720SOL    HW2 2160   3.096   0.970   0.046
  721SOL     OW 2161   2.117   1.291   1.858
  721SOL    HW1 2162   2.060   1.213   1.824
  721SOL    HW2 2163   2.100   1.307   1.957
  722SOL     OW 2164   2.005   1.220   0.680
  722SOL    HW1 2165   2.048   1.174   0.760
  722SOL    HW2 2166   2.054   1.194   0.595
  723SOL     OW 2167   2.550   1.420   1.627
  723SOL    HW1 2168   2.469   1.364   1.658
  723SOL    HW2 2169   2.550   1.511   1.672
  724SOL     OW 2170   2.263   0.436   0.553
  724SOL    HW1 2171   2.299   0.373   0.482
  724SOL    HW2 2172   2.210   0.388   0.626
  725SOL     OW 2173   2.223   0.584   1.274
  725SOL    HW1 2174   2.283   0.518   1.326
  725SOL    HW2 2175   2.226   0.568   1.173
  726SOL     OW 2176   2.677   1.611   0.678
  726SOL    HW1 2177   2.662   1.694   0.622
  726SOL    HW2 2178   2.594   1.551   0.680
  727SOL     OW 2179   2.841   0.047   1.156
  727SOL    HW1 2180   2.793   3.098   1.081
  727SOL    HW2 2181   2.937   0.014   1.169
  728SOL     OW 2182   2.646   1.311   0.319
  728SOL    HW1 2183   2.630   1.215   0.353
  728SOL    HW2 2184   2.711   1.360   0.380
  729SOL     OW 2185   2.468   1.595   1.290
  729SOL    HW1 2186   2.464   1.687   1.335
  729SOL    HW2 2187   2.557   1.584   1.240
  730SOL     OW 2188   1.887   1.056   0.309
  730SOL    HW1 2189   1.986   1.050   0.284
  730SOL    HW2 2190   1.853   0.962   0.333
  731SOL     OW 2191   2.709   1.682   0.321
  731SOL    HW1 2192   2.626   1.664   0.264
  731SOL    HW2 2193   2.692   1.751   0.393
  732SOL     OW 2194   2.053   0.659   2.028
  732SOL    HW1 2195   1.962   0.626   2.060
  732SOL    HW2 2196   2.060   0.650   1.927
  733SOL     OW 2197   2.018   0.314   2.841
  733SOL    HW1 2198   2.065   0.294   2.930
  733SOL    HW2 2199   1.939   0.251   2.828
  734SOL     OW 2200   1.881   0.438   2.482
  734SOL    HW1 2201   1.795   0.437   2.537
  734SOL    HW2 2202   1.870   0.386   2.396
  735SOL     OW 2203   2.381   1.199   3.063
  735SOL    HW1 2204   2.317   1.261   3.015
  735SOL    HW2 2205   2.390   1.227   0.061
  736SOL     OW 2206   2.969   0.789   2.538
  736SOL    HW1 2207   3.069   0.804   2.556
  736SOL    HW2 2208   2.919   0.772   2.625
  737SOL     OW 2209   2.565   1.096   2.901
  737SOL    HW1 2210   2.488   1.129   2.960
  737SOL    HW2 2211   2.609   1.177   2.856
  738SOL     OW 2212   2.547   0.986   2.495
  738SOL    HW1 2213   2.615   0.979   2.571
  738SOL    HW2 2214   2.472   1.052   2.518
  739SOL     OW 2215   2.214   1.388   2.963
  739SOL    HW1 2216   2.125   1.345   2.939
  739SOL    HW2 2217   2.248   1.451   2.889
  740SOL     OW 2218   0.214   1.591   0.126
  740SOL    HW1 2219   0.127   1.621   0.171
  740SOL    HW2 2220   0.255   1.512   0.175
  741SOL     OW 2221   2.089   1.729   2.327
  741SOL    HW1 2222   2.112   1.802   2.395
  741SOL    HW2 2223   2.166   1.720   2.261
  742SOL     OW 2224   2.087   1.457   2.376
  742SOL    HW1 2225   2.079   1.559   2.380
  742SOL    HW2 2226   2.051   1.413   2.460
  743SOL     OW 2227   2.158   1.094   2.734
  743SOL    HW1 2228   2.173   0.995   2.754
  743SOL    HW2 2229   2.110   1.139   2.813
  744SOL     OW 2230   2.418   0.983   2.026
  744SOL    HW1 2231   2.465   1.027   1.946
  744SOL    HW2 2232   2.470   1.007   2.111
  745SOL     OW 2233   1.976   0.698   2.441
  745SOL    HW1 2234   1.950   0.601   2.462
  745SOL    HW2 2235   1.973   0.756   2.525
  746SOL     OW 2236   1.894   1.563   1.978
  746SOL    HW1 2237   1.868   1.465   1.992
  746SOL    HW2 2238   1.875   1.618   2.062
  747SOL     OW 2239   2.480   1.393   2.586
  747SOL    HW1 2240   2.433   1.302   2.588
  747SOL    HW2 2241   2.466   1.433   2.492
  748SOL     OW 2242   2.664   0.105   2.457
  748SOL    HW1 2243   2.728   0.152   2.393
  748SOL    HW2 2244   2.568   0.110   2.422
  749SOL     OW 2245   2.015   0.975   3.094
  749SOL    HW1 2246   2.080   0.912   3.048
  749SOL    HW2 2247   1.918   0.942   3.083
  750SOL     OW 2248   2.436   0.707   2.147
  750SOL    HW1 2249   2.441   0.796   2.098
  750SOL    HW2 2250   2.363   0.708   2.219
  751SOL     OW 2251   2.891   0.719   2.282
  751SOL    HW1 2252   2.919   0.742   2.378
  751SOL    HW2 2253   2.804   0.665   2.280
  752SOL     OW 2254   1.951   0.864   2.659
  752SOL    HW1 2255   2.044   0.845   2.698
  752SOL    HW2 2256   1.904   0.933   2.718
  753SOL     OW 2257   2.711   0.364   2.066
  753SOL    HW1 2258   2.770   0.413   1.998
  753SOL    HW2 2259   2.646   0.301   2.019
  754SOL     OW 2260   2.341   0.294   2.860
  754SOL    HW1 2261   2.405   0.320   2.935
  754SOL    HW2 2262   2.352   0.358   2.780
  755SOL     OW 2263   2.868   1.437   2.322
  755SOL    HW1 2264   2.824   1.518   2.278
  755SOL    HW2 2265   2.857   1.443   2.423
  756SOL     OW 2266   2.224   1.790   2.729
  756SOL    HW1 2267   2.264   1.697   2.744
  756SOL    HW2 2268   2.283   1.861   2.772
  757SOL     OW 2269   2.154   0.935   2.128
  757SOL    HW1 2270   2.247   0.956   2.091
  757SOL    HW2 2271   2.126   0.840   2.104
  758SOL     OW 2272   2.325   1.751   2.183
  758SOL    HW1 2273   2.371   1.810   2.253
  758SOL    HW2 2274   2.395   1.700   2.128
  759SOL     OW 2275   2.085   1.753   3.045
  759SOL    HW1 2276   2.045   1.684   0.009
  759SOL    HW2 2277   2.046   1.742   2.952
  760SOL     OW 2278   2.775   1.720   2.746
  760SOL    HW1 2279   2.857   1.699   2.804
  760SOL    HW2 2280   2.758   1.649   2.675
  761SOL     OW 2281   2.238   0.683   2.335
  761SOL    HW1 2282   2.251   0.582   2.346
  761SOL    HW2 2283   2.142   0.708   2.362
  762SOL     OW 2284   2.537   0.170   1.957
  762SOL    HW1 2285   2.583   0.103   2.020
  762SOL    HW2 2286   2.470   0.123   1.896
  763SOL     OW 2287   2.674   1.307   2.779
  763SOL    HW1 2288   2.772   1.317   2.755
  763SOL    HW2 2289   2.613   1.347   2.708
  764SOL     OW 2290   2.784   0.506   2.736
  764SOL    HW1 2291   2.788   0.485   2.636
  764SOL    HW2 2292   2.801   0.421   2.791
  765SOL     OW 2293   2.409   0.118   2.367
  765SOL    HW1 2294   2.321   0.093   2.411
  765SOL    HW2 2295   2.394   0.165   2.278
  766SOL     OW 2296   2.123   0.042   2.131
  766SOL    HW1 2297   2.208   0.097   2.120
  766SOL    HW2 2298   2.137   3.044   2.110
  767SOL     OW 2299   2.825   0.230   2.274
  767SOL    HW1 2300   2.779   0.281   2.198
  767SOL    HW2 2301   2.926   0.227   2.258
  768SOL     OW 2302   3.063   1.523   2.663
  768SOL    HW1 2303   3.094   1.594   2.597
  768SOL    HW2 2304   3.042   1.568   2.753
  769SOL     OW 2305   2.340   1.159   2.546
  769SOL    HW1 2306   2.278   1.136   2.624
  769SOL    HW2 2307   2.287   1.157   2.459
  770SOL     OW 2308   0.024   1.771   2.551
  770SOL    HW1 2309   0.078   1.773   2.464
  770SOL    HW2 2310   3.037   1.825   2.543
  771SOL     OW 2311   2.880   0.511   1.905
  771SOL    HW1 2312   2.834   0.595   1.870
  771SOL    HW2 2313   2.945   0.534   1.980
  772SOL     OW 2314   2.812   0.448   2.460
  772SOL    HW1 2315   2.746   0.507   2.409
  772SOL    HW2 2316   2.811   0.354   2.420
  773SOL     OW 2317   2.861   0.025   2.737
  773SOL    HW1 2318   2.759   0.025   2.730
  773SOL    HW2 2319   2.899   3.078   2.655
  774SOL     OW 2320   2.348   1.413   2.044
  774SOL    HW1 2321   2.255   1.393   2.082
  774SOL    HW2 2322   2.368   1.353   1.964
  775SOL     OW 2323   2.354   0.257   2.144
  775SOL    HW1 2324   2.424   0.228   2.076
  775SOL    HW2 2325   2.315   0.348   2.117
  776SOL     OW 2326   2.895   1.165   2.983
  776SOL    HW1 2327   2.834   1.225   3.039
  776SOL    HW2 2328   2.918   1.208   2.893
  777SOL     OW 2329   2.596   1.041   2.229
  777SOL    HW1 2330   2.582   1.014   2.326
  777SOL    HW2 2331   2.673   0.988   2.186
  778SOL     OW 2332   2.294   0.827   0.014
  778SOL    HW1 2333   2.342   0.875   0.090
  778SOL    HW2 2334   2.225   0.761   0.049
  779SOL     OW 2335   2.169   1.138   2.324
  779SOL    HW1 2336   2.155   1.215   2.259
  779SOL    HW2 2337   2.166   1.049   2.275
  780SOL     OW 2338   2.381   0.536   2.708
  780SOL    HW1 2339   2.399   0.603   2.633
  780SOL    HW2 2340   2.451   0.546   2.781
  781SOL     OW 2341   0.008   1.303   2.273
  781SOL    HW1 2342   0.057   1.303   2.362
  781SOL    HW2 2343   3.016   1.347   2.283
  782SOL     OW 2344   0.012   1.507   3.052
  782SOL    HW1 2345   0.108   1.521   3.084
  782SOL    HW2 2346   3.073   1.423   3.097
  783SOL     OW 2347   2.455   0.835   2.898
  783SOL    HW1 2348   2.494   0.928   2.889
  783SOL    HW2 2349   2.394   0.828   2.980
  784SOL     OW 2350   0.028   0.800   2.878
  784SOL    HW1 2351   3.030   0.788   2.851
  784SOL    HW2 2352   0.087   0.812   2.796
  785SOL     OW 2353   3.044   0.561   2.119
  785SOL    HW1 2354   3.083   0.485   2.175
  785SOL    HW2 2355   2.996   0.629   2.179
  786SOL     OW 2356   2.145   0.262   3.069
  786SOL    HW1 2357   2.231   0.263   3.015
  786SOL    HW2 2358   2.148   0.194   0.045
  787SOL     OW 2359   2.568   0.578   2.901
  787SOL    HW1 2360   2.650   0.561   2.842
  787SOL    HW2 2361   2.540   0.676   2.901
  788SOL     OW 2362   2.165   0.074   2.505
  788SOL    HW1 2363   2.148   0.171   2.532
  788SOL    HW2 2364   2.224   0.026   2.573
  789SOL     OW 2365   2.863   0.752   2.806
  789SOL    HW1 2366   2.848   0.763   2.907
  789SOL    HW2 2367   2.837   0.657   2.778
  790SOL     OW 2368   2.959   1.288   2.739
  790SOL    HW1 2369   2.952   1.215   2.667
  790SOL    HW2 2370   2.995   1.376   2.699
  791SOL     OW 2371   2.193   0.823   2.786
  791SOL    HW1 2372   2.293   0.829   2.805
  791SOL    HW2 2373   2.162   0.726   2.798
  792SOL     OW 2374   2.131   0.557   2.805
  792SOL    HW1 2375   2.089   0.464   2.812
  792SOL    HW2 2376   2.225   0.548   2.765
  793SOL     OW 2377   1.850   1.283   2.051
  793SOL    HW1 2378   1.758   1.314   2.019
  793SOL    HW2 2379   1.850   1.184   2.074
  794SOL     OW 2380   1.962   1.764   2.791
  794SOL    HW1 2381   1.915   1.688   2.740
  794SOL    HW2 2382   2.058   1.776   2.758
  795SOL     OW 2383   2.350   1.551   2.778
  795SOL    HW1 2384   2.419   1.615   2.818
  795SOL    HW2 2385   2.393   1.491   2.708
  796SOL     OW 2386   2.835   0.785   3.075
  796SOL    HW1 2387   2.907   0.851   0.005
  796SOL    HW2 2388   2.743   0.821  -0.000
  797SOL     OW 2389   1.945   0.579   3.002
  797SOL    HW1 2390   2.012   0.576   2.925
  797SOL    HW2 2391   1.918   0.484   3.031
  798SOL     OW 2392   2.665   0.571   2.247
  798SOL    HW1 2393   2.676   0.493   2.182
  798SOL    HW2 2394   2.581   0.625   2.223
  799SOL     OW 2395   2.476   0.384   3.079
  799SOL    HW1 2396   2.422   0.433   0.051
  799SOL    HW2 2397   2.524   0.453   3.021
  800SOL     OW 2398   2.280   0.501   2.039
  800SOL    HW1 2399   2.356   0.564   2.067
  800SOL    HW2 2400   2.191   0.551   2.047
  801SOL     OW 2401   3.011   1.681   2.879
  801SOL    HW1 2402   3.084   1.750   2.860
  801SOL    HW2 2403   3.042   1.615   2.951
  802SOL     OW 2404   1.999   1.201   2.925
  802SOL    HW1 2405   2.007   1.142   3.008
  802SOL    HW2 2406   1.918   1.173   2.869
  803SOL     OW 2407   2.520   1.622   2.041
  803SOL    HW1 2408   2.534   1.644   1.942
  803SOL    HW2 2409   2.461   1.538   2.049
  804SOL     OW 2410   2.108   0.322   2.583
  804SOL    HW1 2411   2.027   0.373   2.545
  804SOL    HW2 2412   2.097   0.313   2.684
  805SOL     OW 2413   2.646   0.985   0.040
  805SOL    HW1 2414   2.629   1.030   3.050
  805SOL    HW2 2415   2.717   1.035   0.094
  806SOL     OW 2416   2.798   0.901   2.101
  806SOL    HW1 2417   2.871   0.928   2.034
  806SOL    HW2 2418   2.836   0.835   2.170
  807SOL     OW 2419   2.919   1.086   2.564
  807SOL    HW1 2420   2.840   1.050   2.618
  807SOL    HW2 2421   2.952   1.014   2.500
  808SOL     OW 2422   2.819   0.275   2.875
  808SOL    HW1 2423   2.838   0.191   2.821
  808SOL    HW2 2424   2.783   0.252   2.968
  809SOL     OW 2425   2.456   1.474   2.333
  809SOL    HW1 2426   2.520   1.417   2.278
  809SOL    HW2 2427   2.373   1.498   2.280
  810SOL     OW 2428   2.097   1.341   2.139
  810SOL    HW1 2429   2.001   1.321   2.111
  810SOL    HW2 2430   2.097   1.393   2.228
  811SOL     OW 2431   1.945   0.351   1.857
  811SOL    HW1 2432   1.860   0.338   1.802
  811SOL    HW2 2433   1.986   0.442   1.837
  812SOL     OW 2434   1.906   0.206   2.132
  812SOL    HW1 2435   1.907   0.260   2.046
  812SOL    HW2 2436   1.986   0.141   2.134
  813SOL     OW 2437   2.427   0.735   2.526
  813SOL    HW1 2438   2.476   0.823   2.513
  813SOL    HW2 2439   2.356   0.721   2.454
  814SOL     OW 2440   2.714   1.346   1.949
  814SOL    HW1 2441   2.681   1.341   2.046
  814SOL    HW2 2442   2.706   1.440   1.912
  815SOL     OW 2443   2.523   1.745   2.855
  815SOL    HW1 2444   2.485   1.840   2.854
  815SOL    HW2 2445   2.619   1.743   2.820
  816SOL     OW 2446   2.720   0.970   2.709
  816SOL    HW1 2447   2.769   0.887   2.745
  816SOL    HW2 2448   2.667   1.015   2.784
  817SOL     OW 2449   2.990   0.977   1.917
  817SOL    HW1 2450   2.938   1.039   1.853
  817SOL    HW2 2451   3.055   1.029   1.977
  818SOL     OW 2452   1.994   1.216   2.531
  818SOL    HW1 2453   2.036   1.176   2.614
  818SOL    HW2 2454   2.046   1.187   2.448
  819SOL     OW 2455   2.264   0.421   2.375
  819SOL    HW1 2456   2.311   0.348   2.323
  819SOL    HW2 2457   2.222   0.386   2.461
  820SOL     OW 2458   2.705   1.555   2.535
  820SOL    HW1 2459   2.693   1.599   2.444
  820SOL    HW2 2460   2.623   1.500   2.560
  821SOL     OW 2461   2.643   1.312   2.209
  821SOL    HW1 2462   2.622   1.213   2.219
  821SOL    HW2 2463   2.729   1.338   2.258
  822SOL     OW 2464   0.114   3.079   1.924
  822SOL    HW1 2465   0.205   0.003   1.963
  822SOL    HW2 2466   0.066   3.017   1.989
  823SOL     OW 2467   1.888   1.022   2.166
  823SOL    HW1 2468   1.987   1.007   2.145
  823SOL    HW2 2469   1.844   0.932   2.187
  824SOL     OW 2470   2.717   1.651   2.247
  824SOL    HW1 2471   2.645   1.638   2.176
  824SOL    HW2 2472   2.720   1.748   2.280
  825SOL     OW 2473   2.103   2.481   0.098
  825SOL    HW1 2474   2.040   2.491   0.178
  825SOL    HW2 2475   2.049   2.478   0.011
  826SOL     OW 2476   2.073   2.135   0.998
  826SOL    HW1 2477   2.112   2.101   1.086
  826SOL    HW2 2478   1.979   2.096   0.984
  827SOL     OW 2479   1.841   2.249   0.649
  827SOL    HW1 2480   1.754   2.276   0.695
  827SOL    HW2 2481   1.824   2.174   0.582
  828SOL     OW 2482   2.973   2.625   0.691
  828SOL    HW1 2483   3.070   2.648   0.712
  828SOL    HW2 2484   2.918   2.620   0.777
  829SOL     OW 2485   2.632   3.044   0.995
  829SOL    HW1 2486   2.581   3.084   1.073
  829SOL    HW2 2487   2.601   3.086   0.907
  830SOL     OW 2488   2.796   2.621   1.823
  830SOL    HW1 2489   2.837   2.687   1.890
  830SOL    HW2 2490   2.803   2.660   1.729
  831SOL     OW 2491   2.550   2.819   0.670
  831SOL    HW1 2492   2.635   2.835   0.726
  831SOL    HW2 2493   2.472   2.874   0.705
  832SOL     OW 2494   2.325   2.224   1.457
  832SOL    HW1 2495   2.408   2.167   1.472
  832SOL    HW2 2496   2.240   2.174   1.484
  833SOL     OW 2497   2.111   2.913   0.901
  833SOL    HW1 2498   2.135   2.820   0.935
  833SOL    HW2 2499   2.011   2.921   0.882
  834SOL     OW 2500   2.426   2.814   0.202
  834SOL    HW1 2501   2.492   2.845   0.130
  834SOL    HW2 2502   2.460   2.845   0.293
  835SOL     OW 2503   1.974   2.485   0.582
  835SOL    HW1 2504   1.930   2.395   0.602
  835SOL    HW2 2505   1.970   2.546   0.665
  836SOL     OW 2506   2.047   2.608   1.591
  836SOL    HW1 2507   2.149   2.617   1.592
  836SOL    HW2 2508   2.002   2.693   1.626
  837SOL     OW 2509   2.525   0.054   0.771
  837SOL    HW1 2510   2.453   3.089   0.741
  837SOL    HW2 2511   2.482   0.135   0.818
  838SOL     OW 2512   2.682   1.869   0.527
  838SOL    HW1 2513   2.737   1.944   0.484
  838SOL    HW2 2514   2.582   1.893   0.526
  839SOL     OW 2515   2.061   2.823   1.288
  839SOL    HW1 2516   2.153   2.779   1.278
  839SOL    HW2 2517   1.989   2.766   1.244
  840SOL     OW 2518   2.208   2.120   1.880
  840SOL    HW1 2519   2.247   2.202   1.926
  840SOL    HW2 2520   2.107   2.129   1.869
  841SOL     OW 2521   2.443   2.553   0.324
  841SOL    HW1 2522   2.448   2.646   0.284
  841SOL    HW2 2523   2.369   2.548   0.395
  842SOL     OW 2524   2.653   2.460   1.442
  842SOL    HW1 2525   2.628   2.438   1.539
  842SOL    HW2 2526   2.625   2.385   1.379
  843SOL     OW 2527   2.835   2.747   1.582
  843SOL    HW1 2528   2.885   2.676   1.529
  843SOL    HW2 2529   2.777   2.802   1.519
  844SOL     OW 2530   2.862   2.232   1.231
  844SOL    HW1 2531   2.761   2.248   1.244
  844SOL    HW2 2532   2.881   2.198   1.138
  845SOL     OW 2533   2.916   2.558   0.433
  845SOL    HW1 2534   2.936   2.579   0.531
  845SOL    HW2 2535   2.828   2.505   0.425
  846SOL     OW 2536   1.963   2.651   0.791
  846SOL    HW1 2537   2.050   2.648   0.844
  846SOL    HW2 2538   1.915   2.740   0.806
  847SOL     OW 2539   2.744   2.236   0.215
  847SOL    HW1 2540   2.827   2.278   0.171
  847SOL    HW2 2541   2.669   2.226   0.146
  848SOL     OW 2542   2.411   1.997   0.941
  848SOL    HW1 2543   2.422   2.020   1.040
  848SOL    HW2 2544   2.413   2.081   0.884
  849SOL     OW 2545   2.153   2.897   0.219
  849SOL    HW1 2546   2.252   2.870   0.213
  849SOL    HW2 2547   2.103   2.871   0.133
  850SOL     OW 2548   2.071   2.114   1.498
  850SOL    HW1 2549   1.993   2.179   1.495
  850SOL    HW2 2550   2.043   2.028   1.545
  851SOL     OW 2551   2.240   2.514   0.503
  851SOL    HW1 2552   2.263   2.415   0.513
  851SOL    HW2 2553   2.141   2.527   0.523
  852SOL     OW 2554   2.539   1.992   0.125
  852SOL    HW1 2555   2.631   1.948   0.128
  852SOL    HW2 2556   2.540   2.072   0.062
  853SOL     OW 2557   2.613   2.148   1.775
  853SOL    HW1 2558   2.707   2.108   1.765
  853SOL    HW2 2559   2.556   2.089   1.837
  854SOL     OW 2560   2.797   2.362   0.883
  854SOL    HW1 2561   2.803   2.349   0.782
  854SOL    HW2 2562   2.817   2.274   0.930
  855SOL     OW 2563   2.418   1.924   0.501
  855SOL    HW1 2564   2.337   1.925   0.564
  855SOL    HW2 2565   2.413   2.002   0.435
  856SOL     OW 2566   2.175   1.952   0.240
  856SOL    HW1 2567   2.248   2.018   0.270
  856SOL    HW2 2568   2.206   1.856   0.253
  857SOL     OW 2569   2.835   2.074   0.426
  857SOL    HW1 2570   2.796   2.123   0.345
  857SOL    HW2 2571   2.935   2.059   0.414
  858SOL     OW 2572   2.926   2.553   1.412
  858SOL    HW1 2573   2.850   2.486   1.424
  858SOL    HW2 2574   3.017   2.508   1.401
  859SOL     OW 2575   2.324   2.962   0.742
  859SOL    HW1 2576   2.248   2.942   0.807
  859SOL    HW2 2577   2.297   2.935   0.647
  860SOL     OW 2578   2.952   2.368   0.103
  860SOL    HW1 2579   2.927   2.447   0.044
  860SOL    HW2 2580   3.024   2.394   0.171
  861SOL     OW 2581   1.978   2.435   1.391
  861SOL    HW1 2582   2.074   2.422   1.357
  861SOL    HW2 2583   1.979   2.505   1.465
  862SOL     OW 2584   2.425   2.049   1.208
  862SOL    HW1 2585   2.457   1.972   1.266
  862SOL    HW2 2586   2.325   2.063   1.222
  863SOL     OW 2587   2.821   2.289   0.609
  863SOL    HW1 2588   2.761   2.351   0.553
  863SOL    HW2 2589   2.822   2.196   0.567
  864SOL     OW 2590   2.861   1.919   0.746
  864SOL    HW1 2591   2.796   1.911   0.668
  864SOL    HW2 2592   2.845   1.843   0.813
  865SOL     OW 2593   2.383   2.113   0.306
  865SOL    HW1 2594   2.447   2.063   0.244
  865SOL    HW2 2595   2.364   2.205   0.266
  866SOL     OW 2596   2.796   1.957   1.404
  866SOL    HW1 2597   2.796   1.937   1.303
  866SOL    HW2 2598   2.875   2.019   1.427
  867SOL     OW 2599   2.859   2.972   1.743
  867SOL    HW1 2600   2.765   3.009   1.734
  867SOL    HW2 2601   2.872   2.890   1.683
  868SOL     OW 2602   2.586   2.894   0.407
  868SOL    HW1 2603   2.566   2.868   0.504
  868SOL    HW2 2604   2.669   2.843   0.374
  869SOL     OW 2605   2.299   2.680   1.267
  869SOL    HW1 2606   2.375   2.696   1.335
  869SOL    HW2 2607   2.267   2.583   1.275
  870SOL     OW 2608   2.266   2.913   0.483
  870SOL    HW1 2609   2.299   3.009   0.469
  870SOL    HW2 2610   2.202   2.887   0.408
  871SOL     OW 2611   2.392   2.379   0.886
  871SOL    HW1 2612   2.396   2.446   0.808
  871SOL    HW2 2613   2.471   2.395   0.949
  872SOL     OW 2614   2.329   2.604   1.632
  872SOL    HW1 2615   2.386   2.651   1.560
  872SOL    HW2 2616   2.381   2.524   1.669
  873SOL     OW 2617   2.854   2.036   1.747
  873SOL    HW1 2618   2.908   2.116   1.714
  873SOL    HW2 2619   2.895   1.948   1.718
  874SOL     OW 2620   2.349   1.911   1.762
  874SOL    HW1 2621   2.299   1.850   1.698
  874SOL    HW2 2622   2.292   1.991   1.789
  875SOL     OW 2623   2.467   2.707   1.047
  875SOL    HW1 2624   2.485   2.803   1.019
  875SOL    HW2 2625   2.397   2.702   1.122
  876SOL     OW 2626   0.047   2.758   1.040
  876SOL    HW1 2627   3.057   2.764   0.993
  876SOL    HW2 2628   0.066   2.660   1.065
  877SOL     OW 2629   0.025   2.446   0.298
  877SOL    HW1 2630   0.074   2.392   0.368
  877SOL    HW2 2631   3.050   2.500   0.342
  878SOL     OW 2632   2.154   2.045   1.242
  878SOL    HW1 2633   2.122   2.079   1.333
  878SOL    HW2 2634   2.131   1.945   1.233
  879SOL     OW 2635   2.594   2.464   1.049
  879SOL    HW1 2636   2.669   2.443   0.982
  879SOL    HW2 2637   2.555   2.558   1.036
  880SOL     OW 2638   2.189   1.923   0.650
  880SOL    HW1 2639   2.147   2.015   0.668
  880SOL    HW2 2640   2.199   1.872   0.738
  881SOL     OW 2641   2.858   2.627   0.950
  881SOL    HW1 2642   2.841   2.647   1.049
  881SOL    HW2 2643   2.851   2.527   0.933
  882SOL     OW 2644   2.214   2.762   1.829
  882SOL    HW1 2645   2.282   2.787   1.900
  882SOL    HW2 2646   2.257   2.703   1.757
  883SOL     OW 2647   2.189   2.650   0.945
  883SOL    HW1 2648   2.286   2.658   0.916
  883SOL    HW2 2649   2.171   2.558   0.984
  884SOL     OW 2650   2.164   2.384   1.021
  884SOL    HW1 2651   2.119   2.292   1.011
  884SOL    HW2 2652   2.251   2.383   0.965
  885SOL     OW 2653   2.982   2.269   1.687
  885SOL    HW1 2654   2.937   2.315   1.767
  885SOL    HW2 2655   3.078   2.303   1.677
  886SOL     OW 2656   3.001   2.146   1.444
  886SOL    HW1 2657   2.983   2.203   1.527
  886SOL    HW2 2658   2.958   2.187   1.360
  887SOL     OW 2659   2.783   2.675   1.212
  887SOL    HW1 2660   2.848   2.639   1.282
  887SOL    HW2 2661   2.699   2.618   1.208
  888SOL     OW 2662   1.903   2.449   1.129
  888SOL    HW1 2663   1.986   2.436   1.072
  888SOL    HW2 2664   1.927   2.449   1.228
  889SOL     OW 2665   2.070   2.383   1.741
  889SOL    HW1 2666   2.148   2.334   1.699
  889SOL    HW2 2667   2.047   2.467   1.688
  890SOL     OW 2668   2.681   2.422   0.406
  890SOL    HW1 2669   2.698   2.349   0.336
  890SOL    HW2 2670   2.594   2.472   0.386
  891SOL     OW 2671   2.591   2.276   1.247
  891SOL    HW1 2672   2.529   2.197   1.235
  891SOL    HW2 2673   2.582   2.344   1.170
  892SOL     OW 2674   2.337   2.350   0.176
  892SOL    HW1 2675   2.383   2.423   0.231
  892SOL    HW2 2676   2.247   2.383   0.141
  893SOL     OW 2677   1.993   2.989   1.491
  893SOL    HW1 2678   1.984   2.936   1.578
  893SOL    HW2 2679   2.020   2.927   1.414
  894SOL     OW 2680   2.785   1.879   0.142
  894SOL    HW1 2681   2.883   1.905   0.132
  894SOL    HW2 2682   2.774   1.797   0.201
  895SOL     OW 2683   2.092   2.163   0.721
  895SOL    HW1 2684   2.000   2.200   0.694
  895SOL    HW2 2685   2.099   2.159   0.823
  896SOL     OW 2686   2.697   2.888   1.396
  896SOL    HW1 2687   2.735   2.847   1.310
  896SOL    HW2 2688   2.716   2.988   1.402
  897SOL     OW 2689   2.799   2.767   0.307
  897SOL    HW1 2690   2.857   2.805   0.232
  897SOL    HW2 2691   2.847   2.691   0.355
  898SOL     OW 2692   2.208   0.050   1.550
  898SOL    HW1 2693   2.176   0.145   1.533
  898SOL    HW2 2694   2.134   3.083   1.531
  899SOL     OW 2695   2.985   2.924   0.684
  899SOL    HW1 2696   2.897   2.911   0.734
  899SOL    HW2 2697   3.012   2.835   0.642
  900SOL     OW 2698   2.848   2.099   0.978
  900SOL    HW1 2699   2.866   2.059   0.886
  900SOL    HW2 2700   2.834   2.024   1.046
  901SOL     OW 2701   1.971   2.844   1.720
  901SOL    HW1 2702   1.890   2.859   1.780
  901SOL    HW2 2703   2.055   2.825   1.775
  902SOL     OW 2704   2.556   2.055   1.515
  902SOL    HW1 2705   2.645   2.028   1.473
  902SOL    HW2 2706   2.570   2.095   1.608
  903SOL     OW 2707   1.907   1.974   0.250
  903SOL    HW1 2708   1.873   1.977   0.153
  903SOL    HW2 2709   2.010   1.973   0.250
  904SOL     OW 2710   2.508   2.693   1.440
  904SOL    HW1 2711   2.567   2.776   1.432
  904SOL    HW2 2712   2.564   2.608   1.440
  905SOL     OW 2713   2.590   2.422   1.705
  905SOL    HW1 2714   2.647   2.483   1.764
  905SOL    HW2 2715   2.593   2.325   1.737
  906SOL     OW 2716   2.405   2.586   0.711
  906SOL    HW1 2717   2.467   2.665   0.689
  906SOL    HW2 2718   2.342   2.567   0.632
  907SOL     OW 2719   2.765   2.861   0.839
  907SOL    HW1 2720   2.793   2.774   0.883
  907SOL    HW2 2721   2.722   2.925   0.906
  908SOL     OW 2722   2.933   2.864   0.089
  908SOL    HW1 2723   2.926   2.933   0.013
  908SOL    HW2 2724   3.012   2.888   0.150
  909SOL     OW 2725   1.874   0.044   0.683
  909SOL    HW1 2726   1.856   3.053   0.726
  909SOL    HW2 2727   1.974   0.055   0.665
  910SOL     OW 2728   2.278   2.254   0.533
  910SOL    HW1 2729   2.310   2.186   0.465
  910SOL    HW2 2730   2.215   2.215   0.603
  911SOL     OW 2731   2.228   2.417   1.290
  911SOL    HW1 2732   2.277   2.347   1.346
  911SOL    HW2 2733   2.219   2.388   1.192
  912SOL     OW 2734   2.819   1.874   1.145
  912SOL    HW1 2735   2.756   1.811   1.098
  912SOL    HW2 2736   2.914   1.834   1.145
  913SOL     OW 2737   2.645   0.022   0.266
  913SOL    HW1 2738   2.613   3.046   0.327
  913SOL    HW2 2739   2.706   0.084   0.320
  914SOL     OW 2740   3.060   1.913   0.143
  914SOL    HW1 2741   0.038   1.928   0.080
  914SOL    HW2 2742   3.057   1.814   0.172
  915SOL     OW 2743   1.895   2.895   0.334
  915SOL    HW1 2744   1.989   2.905   0.295
  915SOL    HW2 2745   1.878   2.798   0.365
  916SOL     OW 2746   2.050   2.457   2.006
  916SOL    HW1 2747   1.955   2.443   2.041
  916SOL    HW2 2748   2.053   2.445   1.905
  917SOL     OW 2749   2.087   2.138   2.849
  917SOL    HW1 2750   2.136   2.091   2.926
  917SOL    HW2 2751   1.993   2.100   2.839
  918SOL     OW 2752   1.872   2.258   2.492
  918SOL    HW1 2753   1.789   2.283   2.547
  918SOL    HW2 2754   1.846   2.186   2.423
  919SOL     OW 2755   2.997   2.556   2.557
  919SOL    HW1 2756   3.074   2.623   2.559
  919SOL    HW2 2757   2.943   2.560   2.643
  920SOL     OW 2758   2.603   2.912   2.891
  920SOL    HW1 2759   2.614   2.935   2.990
  920SOL    HW2 2760   2.587   2.996   2.834
  921SOL     OW 2761   2.554   2.826   2.521
  921SOL    HW1 2762   2.640   2.823   2.577
  921SOL    HW2 2763   2.485   2.889   2.562
  922SOL     OW 2764   2.153   2.925   2.795
  922SOL    HW1 2765   2.171   2.824   2.801
  922SOL    HW2 2766   2.072   2.951   2.850
  923SOL     OW 2767   2.404   2.849   2.032
  923SOL    HW1 2768   2.439   2.913   1.961
  923SOL    HW2 2769   2.461   2.857   2.117
  924SOL     OW 2770   1.985   2.510   2.445
  924SOL    HW1 2771   1.956   2.414   2.466
  924SOL    HW2 2772   1.982   2.569   2.528
  925SOL     OW 2773   2.584   0.003   2.692
  925SOL    HW1 2774   2.487   3.075   2.678
  925SOL    HW2 2775   2.619   0.047   2.606
  926SOL     OW 2776   2.711   1.906   2.348
  926SOL    HW1 2777   2.761   1.989   2.313
  926SOL    HW2 2778   2.611   1.924   2.359
  927SOL     OW 2779   2.032   2.820   3.090
  927SOL    HW1 2780   2.110   2.762   3.058
  927SOL    HW2 2781   1.942   2.785   3.058
  928SOL     OW 2782   2.428   2.555   2.144
  928SOL    HW1 2783   2.436   2.648   2.105
  928SOL    HW2 2784   2.360   2.553   2.220
  929SOL     OW 2785   2.904   2.533   2.294
  929SOL    HW1 2786   2.930   2.539   2.393
  929SOL    HW2 2787   2.811   2.491   2.283
  930SOL     OW 2788   1.974   2.679   2.654
  930SOL    HW1 2789   2.068   2.679   2.694
  930SOL    HW2 2790   1.928   2.768   2.669
  931SOL     OW 2791   2.725   2.229   2.054
  931SOL    HW1 2792   2.789   2.286   1.997
  931SOL    HW2 2793   2.664   2.173   1.994
  932SOL     OW 2794   2.383   1.986   2.840
  932SOL    HW1 2795   2.329   1.996   2.926
  932SOL    HW2 2796   2.404   2.076   2.799
  933SOL     OW 2797   2.146   2.839   2.120
  933SOL    HW1 2798   2.245   2.849   2.096
  933SOL    HW2 2799   2.107   2.759   2.070
  934SOL     OW 2800   2.247   2.526   2.345
  934SOL    HW1 2801   2.265   2.426   2.354
  934SOL    HW2 2802   2.150   2.544   2.372
  935SOL     OW 2803   2.515   1.968   1.965
  935SOL    HW1 2804   2.569   1.890   2.002
  935SOL    HW2 2805   2.451   1.935   1.892
  936SOL     OW 2806   2.782   2.348   2.726
  936SOL    HW1 2807   2.763   2.342   2.626
  936SOL    HW2 2808   2.820   2.258   2.757
  937SOL     OW 2809   2.436   1.937   2.351
  937SOL    HW1 2810   2.357   1.930   2.416
  937SOL    HW2 2811   2.421   2.013   2.284
  938SOL     OW 2812   2.150   1.901   2.038
  938SOL    HW1 2813   2.193   1.981   1.993
  938SOL    HW2 2814   2.218   1.847   2.092
  939SOL     OW 2815   2.865   2.121   2.261
  939SOL    HW1 2816   2.809   2.161   2.186
  939SOL    HW2 2817   2.962   2.111   2.231
  940SOL     OW 2818   2.342   2.981   2.614
  940SOL    HW1 2819   2.277   2.961   2.691
  940SOL    HW2 2820   2.303   2.948   2.525
  941SOL     OW 2821   2.895   2.387   1.914
  941SOL    HW1 2822   2.857   2.477   1.884
  941SOL    HW2 2823   2.967   2.400   1.986
  942SOL     OW 2824   2.762   2.296   2.458
  942SOL    HW1 2825   2.700   2.352   2.399
  942SOL    HW2 2826   2.801   2.219   2.403
  943SOL     OW 2827   2.876   1.900   2.570
  943SOL    HW1 2828   2.817   1.905   2.488
  943SOL    HW2 2829   2.834   1.837   2.640
  944SOL     OW 2830   2.389   2.118   2.157
  944SOL    HW1 2831   2.438   2.065   2.086
  944SOL    HW2 2832   2.351   2.205   2.117
  945SOL     OW 2833   2.902   3.062   3.005
  945SOL    HW1 2834   2.993   0.002   3.032
  945SOL    HW2 2835   2.886   3.071   2.905
  946SOL     OW 2836   2.566   2.869   2.246
  946SOL    HW1 2837   2.545   2.859   2.346
  946SOL    HW2 2838   2.658   2.828   2.227
  947SOL     OW 2839   2.284   2.671   0.010
  947SOL    HW1 2840   2.333   2.717   0.087
  947SOL    HW2 2841   2.225   2.595   0.043
  948SOL     OW 2842   2.213   2.925   2.381
  948SOL    HW1 2843   2.169   3.016   2.389
  948SOL    HW2 2844   2.185   2.877   2.296
  949SOL     OW 2845   2.397   2.375   2.718
  949SOL    HW1 2846   2.415   2.443   2.645
  949SOL    HW2 2847   2.468   2.380   2.791
  950SOL     OW 2848   2.472   2.670   2.907
  950SOL    HW1 2849   2.517   2.761   2.896
  950SOL    HW2 2850   2.400   2.672   2.980
  951SOL     OW 2851   0.045   2.661   2.895
  951SOL    HW1 2852   3.055   2.644   2.850
  951SOL    HW2 2853   0.122   2.657   2.828
  952SOL     OW 2854   3.076   2.410   2.118
  952SOL    HW1 2855   0.004   2.321   2.160
  952SOL    HW2 2856   3.024   2.466   2.186
  953SOL     OW 2857   2.205   1.993   3.050
  953SOL    HW1 2858   2.212   2.019   0.048
  953SOL    HW2 2859   2.164   1.899   3.044
  954SOL     OW 2860   2.589   2.420   2.911
  954SOL    HW1 2861   2.662   2.400   2.842
  954SOL    HW2 2862   2.555   2.516   2.905
  955SOL     OW 2863   2.200   1.915   2.493
  955SOL    HW1 2864   2.163   2.008   2.513
  955SOL    HW2 2865   2.210   1.861   2.579
  956SOL     OW 2866   2.884   2.582   2.813
  956SOL    HW1 2867   2.873   2.593   2.915
  956SOL    HW2 2868   2.846   2.491   2.784
  957SOL     OW 2869   2.211   2.660   2.790
  957SOL    HW1 2870   2.313   2.666   2.795
  957SOL    HW2 2871   2.183   2.562   2.798
  958SOL     OW 2872   2.149   2.395   2.810
  958SOL    HW1 2873   2.115   2.301   2.830
  958SOL    HW2 2874   2.243   2.388   2.768
  959SOL     OW 2875   2.857   2.612   3.085
  959SOL    HW1 2876   2.900   2.698   0.020
  959SOL    HW2 2877   2.763   2.600   0.023
  960SOL     OW 2878   1.956   2.502   2.966
  960SOL    HW1 2879   2.023   2.464   2.899
  960SOL    HW2 2880   1.921   2.593   2.935
  961SOL     OW 2881   2.657   2.425   2.236
  961SOL    HW1 2882   2.672   2.350   2.169
  961SOL    HW2 2883   2.573   2.478   2.211
  962SOL     OW 2884   2.542   2.249   0.022
  962SOL    HW1 2885   2.460   2.287   0.070
  962SOL    HW2 2886   2.564   2.306   3.040
  963SOL     OW 2887   2.293   2.341   2.031
  963SOL    HW1 2888   2.359   2.412   2.062
  963SOL    HW2 2889   2.198   2.381   2.033
  964SOL     OW 2890   2.111   2.156   2.570
  964SOL    HW1 2891   2.023   2.198   2.539
  964SOL    HW2 2892   2.117   2.156   2.671
  965SOL     OW 2893   2.645   2.928   0.066
  965SOL    HW1 2894   2.738   2.888   0.068
  965SOL    HW2 2895   2.638   3.003   0.134
  966SOL     OW 2896   2.809   2.771   2.202
  966SOL    HW1 2897   2.850   2.794   2.111
  966SOL    HW2 2898   2.849   2.684   2.238
  967SOL     OW 2899   2.944   2.951   2.530
  967SOL    HW1 2900   2.891   2.896   2.597
  967SOL    HW2 2901   2.920   2.923   2.436
  968SOL     OW 2902   2.876   2.097   2.773
  968SOL    HW1 2903   2.881   2.036   2.692
  968SOL    HW2 2904   2.878   2.045   2.860
  969SOL     OW 2905   1.936   2.173   1.855
  969SOL    HW1 2906   1.848   2.163   1.805
  969SOL    HW2 2907   1.981   2.260   1.824
  970SOL     OW 2908   1.905   2.003   2.089
  970SOL    HW1 2909   1.890   2.071   2.014
  970SOL    HW2 2910   2.000   1.964   2.082
  971SOL     OW 2911   2.433   2.578   2.542
  971SOL    HW1 2912   2.482   2.667   2.531
  971SOL    HW2 2913   2.363   2.565   2.469
  972SOL     OW 2914   2.776   2.812   2.701
  972SOL    HW1 2915   2.815   2.724   2.736
  972SOL    HW2 2916   2.714   2.853   2.772
  973SOL     OW 2917   2.931   2.823   1.965
  973SOL    HW1 2918   2.913   2.889   1.889
  973SOL    HW2 2919   3.011   2.853   2.021
  974SOL     OW 2920   1.891   0.037   2.545
  974SOL    HW1 2921   1.870   3.047   2.588
  974SOL    HW2 2922   1.990   0.045   2.522
  975SOL     OW 2923   2.279   2.265   2.374
  975SOL    HW1 2924   2.317   2.196   2.310
  975SOL    HW2 2925   2.227   2.222   2.451
  976SOL     OW 2926   2.651   0.011   2.139
  976SOL    HW1 2927   2.615   3.027   2.185
  976SOL    HW2 2928   2.720   0.057   2.197
  977SOL     OW 2929   1.882   2.858   2.216
  977SOL    HW1 2930   1.978   2.867   2.182
  977SOL    HW2 2931   1.856   2.760   2.229
   3.10000   3.10000   3.10000
