1000 SPC/Fw water molecules
 2931
    1SOL     OW    1   2.521   0.398   2.573  0.0165  0.3922  0.8181
    1SOL    HW1    2   2.491   0.308   2.538 -1.2051  1.4622 -0.7035
    1SOL    HW2    3   2.579   0.397   2.661  0.5291 -1.5364  0.6943
    2SOL     OW    4   2.757   3.014   1.413 -0.9371 -0.3222 -0.3378
    2SOL    HW1    5   2.848   3.062   1.384  0.8893  1.0112  1.6114
    2SOL    HW2    6   2.688   3.082   1.441 -1.2513 -1.4216 -2.3167
    3SOL     OW    7   2.733   2.627   0.447  0.2074 -0.0321  0.3069
    3SOL    HW1    8   2.679   2.543   0.464 -3.0198  2.5592  0.7715
    3SOL    HW2    9   2.800   2.643   0.520 -1.3937  1.2120 -1.1680
    4SOL     OW   10   1.310   1.439   2.326 -0.2659  0.3721 -0.1350
    4SOL    HW1   11   1.244   1.517   2.358  0.1137  1.2052  1.3178
    4SOL    HW2   12   1.300   1.350   2.381 -1.6519 -0.2100  1.5469
    5SOL     OW   13   1.167   1.527   3.023 -0.2305 -0.3424 -0.3060
    5SOL    HW1   14   1.208   1.611   3.067  0.1969 -1.8839 -1.5054
    5SOL    HW2   15   1.064   1.520   3.034 -0.0622 -2.9057  1.6049
    6SOL     OW   16   0.160   1.921   2.955  0.2709 -0.5341 -0.5751
    6SOL    HW1   17   0.223   1.877   3.026  0.8831 -1.9032 -3.8316
    6SOL    HW2   18   0.078   1.856   2.938  0.3971  0.1073 -2.8201
    7SOL     OW   19   2.605   0.838   1.214  0.3704 -0.3356  0.1660
    7SOL    HW1   20   2.579   0.769   1.286  0.3895 -1.1821 -0.4023
    7SOL    HW2   21   2.618   0.791   1.124  2.1275 -0.7199  1.4841
    8SOL     OW   22   0.440   0.671   1.607  0.4223  0.2674  0.5683
    8SOL    HW1   23   0.528   0.620   1.611 -2.5273  0.0869  1.2082
    8SOL    HW2   24   0.366   0.600   1.582  0.2605 -2.6816  1.5477
    9SOL     OW   25   1.142   0.888   2.277  0.3296  0.7859 -0.4507
    9SOL    HW1   26   1.209   0.972   2.263  0.1047  1.0041 -0.8525
    9SOL    HW2   27   1.107   0.857   2.184  0.8684  0.1693  2.6570
   10SOL     OW   28   0.610   1.365   1.330 -0.6663 -0.0956 -0.0679
   10SOL    HW1   29   0.527   1.384   1.267  1.1826  4.7044  1.4898
   10SOL    HW2   30   0.690   1.428   1.319 -0.7621 -0.6434  0.5417
   11SOL     OW   31   2.349   2.552   0.912  0.6474 -0.3122 -0.0212
   11SOL    HW1   32   2.390   2.596   0.998  0.4777 -0.3090  1.8039
   11SOL    HW2   33   2.396   2.466   0.883 -0.9627  0.7204 -1.2909
   12SOL     OW   34   1.447   0.906   0.448  0.1274  0.0381  0.5682
   12SOL    HW1   35   1.362   0.961   0.443 -1.3101 -3.1198  0.2765
   12SOL    HW2   36   1.432   0.804   0.451 -0.9124  2.3046  2.4321
   13SOL     OW   37   2.445   0.690   1.808 -0.6089 -0.3807  0.6278
   13SOL    HW1   38   2.376   0.651   1.873 -1.7222  1.8461  1.5036
   13SOL    HW2   39   2.434   0.654   1.713  1.4838 -0.7788 -0.2167
   14SOL     OW   40   1.787   0.032   0.546  0.3700  0.0608  0.1103
   14SOL    HW1   41   1.705   0.079   0.498 -0.7666 -0.2067 -0.6022
   14SOL    HW2   42   1.769   0.000   0.643  1.8506  0.3680  0.3680
   15SOL     OW   43   1.995   2.049   2.799  0.1957  0.3174  0.5017
   15SOL    HW1   44   1.929   2.117   2.848  0.7209  2.0003  0.0570
   15SOL    HW2   45   1.947   1.971   2.753  4.5675 -0.7447  0.5374
   16SOL     OW   46   1.559   1.646   3.099  0.3935  0.6391 -0.1447
   16SOL    HW1   47   1.590   1.553   3.063  0.7865  0.9351 -0.8298
   16SOL    HW2   48   1.560   1.650   3.202 -0.4259  0.8650 -1.2771
   17SOL     OW   49   0.037   0.517   0.111 -0.1564  0.2607  0.6926
   17SOL    HW1   50   0.135   0.503   0.093  0.2584  0.5242  2.3832
   17SOL    HW2   51  -0.013   0.529   0.024 -0.1879 -1.0395  1.2798
   18SOL     OW   52   1.085   2.868   2.130 -0.4176  0.0934 -0.6049
   18SOL    HW1   53   0.984   2.877   2.122  0.7365 -0.4417  0.7030
   18SOL    HW2   54   1.128   2.823   2.045 -0.3663 -2.2966  0.9394
   19SOL     OW   55   0.591   1.059   1.936  0.1957  0.1880  0.4446
   19SOL    HW1   56   0.547   1.029   2.024 -1.8204  0.4775  0.1082
   19SOL    HW2   57   0.681   1.018   1.910 -0.1667 -2.2237 -0.9635
   20SOL     OW   58   0.239   2.735   0.834  1.0574 -0.5505 -0.0579
   20SOL    HW1   59   0.163   2.805   0.829  1.5981 -1.2899  0.8621
   20SOL    HW2   60   0.291   2.724   0.748  0.8407 -1.5471 -0.3263
   21SOL     OW   61   2.827   0.233   2.112  0.2545  0.1589  1.0202
   21SOL    HW1   62   2.903   0.173   2.077  1.5512  2.0916  1.2876
   21SOL    HW2   63   2.794   0.219   2.210 -1.7471  1.5227  2.0123
   22SOL     OW   64   2.355   0.166   0.074  0.4264 -0.4169 -0.1981
   22SOL    HW1   65   2.370   0.065   0.051 -0.9669  3.1395  0.7816
   22SOL    HW2   66   2.256   0.199   0.068  1.6028  0.6285 -0.4321
   23SOL     OW   67   2.733   0.641   0.734 -0.3020 -0.3717  0.6261
   23SOL    HW1   68   2.715   0.542   0.720 -2.3090 -0.2527  2.2114
   23SOL    HW2   69   2.739   0.694   0.643 -3.6783 -1.0172 -0.8233
   24SOL     OW   70   0.154   1.892   0.398  0.2903  0.0774  0.1326
   24SOL    HW1   71   0.054   1.896   0.364  0.0482  0.0072  1.1932
   24SOL    HW2   72   0.223   1.900   0.319 -2.1523  1.2629  0.0671
   25SOL     OW   73   2.281   0.539   0.199  0.0548  0.4595  0.2562
   25SOL    HW1   74   2.338   0.474   0.261  0.9966  0.8480  2.5576
   25SOL    HW2   75   2.255   0.499   0.105  0.4350  1.2505 -0.3008
   26SOL     OW   76   2.518   2.150   2.086  0.0554 -0.1047 -0.0588
   26SOL    HW1   77   2.575   2.206   2.152 -0.1096  0.6220 -0.3242
   26SOL    HW2   78   2.576   2.087   2.026 -2.5030  0.4701  0.5014
   27SOL     OW   79   0.663   3.013   0.127  0.1306  0.1350 -0.3471
   27SOL    HW1   80   0.752   3.058   0.103 -0.5788  0.0670  0.7832
   27SOL    HW2   81   0.586   3.054   0.072  0.6709  0.5237 -0.7882
   28SOL     OW   82   1.464   0.244   0.175  0.4079  0.0163  0.4012
   28SOL    HW1   83   1.552   0.193   0.172  0.1919  0.6927  3.1446
   28SOL    HW2   84   1.472   0.350   0.175  0.1166 -0.8832  1.3081
   29SOL     OW   85   2.025   0.582   0.323 -0.3934  0.5591  0.0176
   29SOL    HW1   86   2.039   0.681   0.341 -1.3985 -1.2348 -1.1854
   29SOL    HW2   87   2.108   0.540   0.281 -0.6371  2.1725  0.0005
   30SOL     OW   88   0.211   2.030   0.909  0.2358 -0.2349 -0.4875
   30SOL    HW1   89   0.174   1.978   0.832 -0.2776  0.3249 -2.1010
   30SOL    HW2   90   0.142   2.082   0.968  0.1753  0.2141 -0.7507
   31SOL     OW   91   2.125   3.099   2.348 -0.5109  0.3632  0.7269
   31SOL    HW1   92   2.091   3.108   2.445  0.0735  1.6312 -0.7808
   31SOL    HW2   93   2.055   3.070   2.279 -1.0681  2.9153  2.5461
   32SOL     OW   94   3.003   0.089   0.282 -0.4108  0.1391  0.3224
   32SOL    HW1   95   2.997   0.018   0.358  2.7386 -1.6642 -1.4955
   32SOL    HW2   96   3.073   0.057   0.215 -1.8829  1.8621 -0.0009
   33SOL     OW   97   0.964   0.335   0.466  0.7079  0.1625  0.3542
   33SOL    HW1   98   0.921   0.240   0.480  0.8993  2.8953  0.7646
   33SOL    HW2   99   1.002   0.367   0.552  1.2068 -1.4610 -1.1110
   34SOL     OW  100   0.379   2.909   1.045 -0.3468 -0.3878 -0.2684
   34SOL    HW1  101   0.361   2.873   0.949  2.3638 -1.1430 -0.6041
   34SOL    HW2  102   0.478   2.894   1.072 -1.0893 -1.4595  1.0183
   35SOL     OW  103   0.058   3.098   1.760  0.0592  0.1995  0.0126
   35SOL    HW1  104   0.035   2.999   1.749  0.1809  0.6666  0.8250
   35SOL    HW2  105   0.012   3.158   1.688 -2.3213 -2.4991 -0.8499
   36SOL     OW  106   1.900   1.161   1.763  0.0928 -0.4643 -0.4801
   36SOL    HW1  107   1.948   1.088   1.704 -0.6562 -0.5718  0.2691
   36SOL    HW2  108   1.923   1.255   1.734 -1.0696 -3.1240  0.7663
   37SOL     OW  109   1.128   0.340   1.007  0.3594 -0.0558  0.6132
   37SOL    HW1  110   1.195   0.411   1.039  1.8836 -1.1839  0.8266
   37SOL    HW2  111   1.180   0.252   1.006 -1.8478  2.3971  0.3059
   38SOL     OW  112   1.159   2.670   2.326  0.1444  0.5386  0.3450
   38SOL    HW1  113   1.072   2.608   2.353 -1.9381  0.3800  1.2174
   38SOL    HW2  114   1.141   2.746   2.258 -1.0504  0.8461 -0.9800
   39SOL     OW  115   2.426   1.494   0.048 -0.1751 -0.0430  0.4858
   39SOL    HW1  116   2.451   1.404   0.014  1.0867  2.1271  1.0527
   39SOL    HW2  117   2.335   1.492   0.096 -2.9402 -0.2005  2.3501
   40SOL     OW  118   1.988   2.524   2.625  0.1415  0.4392 -0.1726
   40SOL    HW1  119   1.914   2.593   2.626  1.0085 -0.6653 -0.1430
   40SOL    HW2  120   1.964   2.446   2.569  0.2319 -1.6924  1.3817
   41SOL     OW  121   2.958   0.707   2.696  0.2276  0.0897  0.5192
   41SOL    HW1  122   2.863   0.731   2.728  0.8330 -0.1356  1.7840
   41SOL    HW2  123   2.968   0.602   2.697 -1.9803  1.0495 -3.0620
   42SOL     OW  124   1.693   1.707   0.604 -0.2775  0.2509 -0.1828
   42SOL    HW1  125   1.640   1.631   0.561  0.6244  1.7419  0.7738
   42SOL    HW2  126   1.746   1.759   0.530  1.4308  0.8277  0.2688
   43SOL     OW  127   0.453   1.746   1.222  0.0620 -0.0173  0.8328
   43SOL    HW1  128   0.418   1.717   1.316  0.5864  2.6481  3.0566
   43SOL    HW2  129   0.379   1.745   1.150  1.0134  1.0303 -0.0001
   44SOL     OW  130   1.736   2.486   0.012  0.5142  0.1499 -0.3072
   44SOL    HW1  131   1.769   2.562  -0.055 -0.3244  0.6170 -1.6336
   44SOL    HW2  132   1.784   2.471   0.106  0.4948 -1.0183  2.6107
   45SOL     OW  133   0.319   1.891   2.566 -0.2989  0.4449 -0.2894
   45SOL    HW1  134   0.257   1.908   2.488  1.2111  1.5385  1.0235
   45SOL    HW2  135   0.404   1.840   2.537 -1.4827 -0.3955  0.1173
   46SOL     OW  136   1.215   0.689   0.128  0.4522 -0.3856 -0.1845
   46SOL    HW1  137   1.278   0.775   0.119  3.0155  2.0997  3.2821
   46SOL    HW2  138   1.116   0.709   0.104  3.7865 -2.1989 -0.6454
   47SOL     OW  139   0.235   2.426   1.571  0.8112  0.0266 -0.1914
   47SOL    HW1  140   0.325   2.390   1.559 -0.3690 -0.2229  1.8753
   47SOL    HW2  141   0.206   2.497   1.498  1.8728  0.9190 -1.5761
   48SOL     OW  142   2.676   0.531   0.111 -0.4035  0.0575 -0.8423
   48SOL    HW1  143   2.613   0.550   0.197 -0.2707 -0.5541  3.7471
   48SOL    HW2  144   2.737   0.610   0.083 -1.1378  1.5388  0.7147
   49SOL     OW  145   0.372   0.894   1.771 -0.4487 -0.2335 -0.5463
   49SOL    HW1  146   0.457   0.945   1.778 -1.8319 -2.4411  3.6048
   49SOL    HW2  147   0.390   0.798   1.740 -1.0903  3.1330  2.6535
   50SOL     OW  148   1.682   1.067   0.255  0.4204  0.1877  0.0019
   50SOL    HW1  149   1.680   0.971   0.216 -2.0146  1.2159  1.4931
   50SOL    HW2  150   1.647   1.079   0.347  0.6328 -1.4211 -3.1288
   51SOL     OW  151   2.990   1.922   0.322  0.2130 -0.0411  0.4816
   51SOL    HW1  152   3.012   1.966   0.234  1.6467 -2.3795  1.6856
   51SOL    HW2  153   2.931   1.839   0.310 -1.9664 -0.1225 -0.7041
   52SOL     OW  154   0.802   1.885   0.527 -0.3875 -0.2023 -0.0587
   52SOL    HW1  155   0.789   1.983   0.559 -2.2986  0.8761  1.2668
   52SOL    HW2  156   0.829   1.826   0.601 -1.9486 -0.2547 -2.8211
   53SOL     OW  157   3.089   0.416   1.520 -0.6026 -0.2196 -0.4473
   53SOL    HW1  158   3.005   0.369   1.544  1.1027 -2.8915  0.8419
   53SOL    HW2  159   3.078   0.521   1.516 -1.6668 -1.6021  0.2408
   54SOL     OW  160   1.769   0.460   3.015 -0.9825  0.0174  0.0229
   54SOL    HW1  161   1.810   0.413   3.098  0.4866 -0.1074 -1.1345
   54SOL    HW2  162   1.665   0.472   3.019  0.4842  0.7187 -0.2612
   55SOL     OW  163   0.694   2.906   0.648 -0.5781  0.7066 -0.7735
   55SOL    HW1  164   0.642   2.992   0.674 -0.2892 -3.4591  0.1595
   55SOL    HW2  165   0.791   2.922   0.624 -0.7944 -4.2369 -1.0650
   56SOL     OW  166   0.453   1.547   3.092 -0.5071  0.0886  0.2105
   56SOL    HW1  167   0.381   1.608   3.141  0.9198 -1.7570 -0.6938
   56SOL    HW2  168   0.439   1.449   3.107 -2.2927  2.1813  0.9274
   57SOL     OW  169   1.712   2.387   2.664  0.1621 -0.2987 -0.2244
   57SOL    HW1  170   1.773   2.372   2.583  2.4691 -1.7716 -1.7324
   57SOL    HW2  171   1.635   2.454   2.651 -1.2343 -0.3918  1.6129
   58SOL     OW  172   0.659   0.472   1.093 -0.1621 -0.2737 -0.5719
   58SOL    HW1  173   0.610   0.550   1.042 -0.8071  2.1924  1.1290
   58SOL    HW2  174   0.613   0.385   1.098  0.1565 -0.2549  1.9711
   59SOL     OW  175   0.482   2.398   2.715 -0.2981  0.4157  0.1917
   59SOL    HW1  176   0.486   2.301   2.686 -0.7298  3.5459 -2.3131
   59SOL    HW2  177   0.535   2.416   2.800 -0.7694 -0.3793  2.1434
   60SOL     OW  178   2.332   2.144   2.283  0.5943 -0.1423  0.0358
   60SOL    HW1  179   2.398   2.164   2.208  2.0735  4.4730  0.3249
   60SOL    HW2  180   2.339   2.198   2.370 -0.3204  0.9980  1.1625
   61SOL     OW  181   1.343   0.651   0.438 -0.3219 -0.2631 -0.1780
   61SOL    HW1  182   1.251   0.621   0.479  1.0176 -1.9571  1.9595
   61SOL    HW2  183   1.369   0.607   0.349  2.0301  0.0964  1.7064
   62SOL     OW  184   2.721   1.890   3.052  0.1348  0.4970 -0.4737
   62SOL    HW1  185   2.682   1.813   3.109 -1.1863 -0.3091  0.4470
   62SOL    HW2  186   2.727   1.869   2.951  0.5263 -0.4526  1.7404
   63SOL     OW  187   0.592   0.838   0.138  0.2558 -0.5646  0.1242
   63SOL    HW1  188   0.531   0.916   0.108 -2.3928 -2.2488  2.0084
   63SOL    HW2  189   0.676   0.865   0.188 -0.7662 -0.5276 -2.4792
   64SOL     OW  190   0.075   0.565   2.470  0.3583 -0.3374  0.1631
   64SOL    HW1  191   0.094   0.641   2.538  0.9367 -1.6545 -0.4601
   64SOL    HW2  192   0.053   0.606   2.380  2.0996 -0.3693  2.1119
   65SOL     OW  193   0.192   1.495   0.611  0.1251 -0.0537 -0.1339
   65SOL    HW1  194   0.229   1.579   0.662 -0.6344  1.4101  0.5131
   65SOL    HW2  195   0.265   1.454   0.552 -0.0037  0.2721  0.4047
   66SOL     OW  196   2.451   0.311   0.626 -0.3133  0.3418 -0.3005
   66SOL    HW1  197   2.390   0.388   0.656  2.7788 -1.7984  0.9513
   66SOL    HW2  198   2.408   0.215   0.638 -0.2389 -1.2039 -0.5830
   67SOL     OW  199   0.486   2.531   1.311 -0.4014 -0.0263 -0.7656
   67SOL    HW1  200   0.573   2.589   1.341  1.3441 -2.3640  0.4979
   67SOL    HW2  201   0.479   2.437   1.353 -2.7139  2.9856 -2.1103
   68SOL     OW  202   1.006   1.107   2.380 -0.2731  0.1754 -0.1519
   68SOL    HW1  203   1.032   1.021   2.324  2.0636  0.1869 -0.0128
   68SOL    HW2  204   0.941   1.170   2.324 -2.2181  0.2481 -0.5889
   69SOL     OW  205   0.764   2.714   2.153  0.5021 -0.2192 -0.1410
   69SOL    HW1  206   0.811   2.617   2.152 -2.4751 -3.7019 -1.4691
   69SOL    HW2  207   0.669   2.703   2.191  1.0723  1.2196 -1.6264
   70SOL     OW  208   0.527   0.230   2.697  0.0727 -0.1768 -0.1532
   70SOL    HW1  209   0.599   0.230   2.769 -0.5124 -1.4798  1.4370
   70SOL    HW2  210   0.467   0.144   2.695 -3.9050 -0.9793 -1.7873
   71SOL     OW  211   1.082   1.790   0.335  0.5791  0.2613 -0.1967
   71SOL    HW1  212   1.062   1.689   0.353 -2.6516 -1.5271  0.3919
   71SOL    HW2  213   1.063   1.816   0.237 -0.4869 -0.5954 -0.5637
   72SOL     OW  214   1.800   0.133   2.101  0.0829  0.3369 -0.5171
   72SOL    HW1  215   1.854   0.182   2.025  0.4323 -3.1501 -2.0229
   72SOL    HW2  216   1.816   0.031   2.106 -0.4255 -1.1814  0.6443
   73SOL     OW  217   2.850   2.201   2.506  0.1794 -0.0197  0.1395
   73SOL    HW1  218   2.819   2.106   2.477 -1.8411 -0.5438  1.2880
   73SOL    HW2  219   2.881   2.205   2.606 -0.4450  2.2852 -0.6365
   74SOL     OW  220   2.705   2.956   2.126  0.3206  0.2275 -0.5427
   74SOL    HW1  221   2.661   2.936   2.221 -1.9644 -0.0046 -0.0333
   74SOL    HW2  222   2.803   2.927   2.114 -0.1152  2.2947 -1.9616
   75SOL     OW  223   0.933   0.766   0.972  0.1778  0.4748  0.6021
   75SOL    HW1  224   0.833   0.798   0.945 -1.4928 -0.5428  1.4517
   75SOL    HW2  225   0.958   0.798   1.066 -0.2502 -2.2467 -1.3190
   76SOL     OW  226   1.741   1.264   2.542  0.0057  0.1971  0.6617
   76SOL    HW1  227   1.643   1.243   2.518 -1.5406 -0.0932  1.6674
   76SOL    HW2  228   1.751   1.345   2.607  0.0208 -0.2097 -1.1857
   77SOL     OW  229   2.985   1.004   1.036  0.1398  0.1519  0.3138
   77SOL    HW1  230   2.989   0.901   1.023 -0.3279 -1.7804  0.4738
   77SOL    HW2  231   3.059   1.048   1.097  1.8798  0.4230  0.8063
   78SOL     OW  232   1.995   1.390   1.434 -0.3595 -0.3486 -0.1630
   78SOL    HW1  233   2.050   1.404   1.346  0.3409 -3.1212 -2.1992
   78SOL    HW2  234   1.896   1.367   1.419  0.4553  0.4513 -0.8352
   79SOL     OW  235   0.650   1.274   0.820 -0.3302  0.2913 -0.5612
   79SOL    HW1  236   0.556   1.265   0.771 -1.8740 -0.2898  1.2236
   79SOL    HW2  237   0.725   1.218   0.779 -0.0096  1.0856  0.9001
   80SOL     OW  238   0.664   0.511   1.628  0.2246  0.5931 -0.1212
   80SOL    HW1  239   0.728   0.577   1.586 -2.8844 -2.3567 -1.2892
   80SOL    HW2  240   0.636   0.432   1.569 -3.4360  1.0538  0.4305
   81SOL     OW  241   1.109   1.474   2.596  0.3607  0.0742  0.3131
   81SOL    HW1  242   1.047   1.429   2.664  0.6888 -0.3087 -2.9634
   81SOL    HW2  243   1.059   1.476   2.503 -0.0010  0.9817 -2.1338
   82SOL     OW  244   0.909   3.004   1.535 -0.0691 -0.2833  0.2115
   82SOL    HW1  245   0.907   3.005   1.434 -0.1683 -0.4584  2.2396
   82SOL    HW2  246   0.832   2.953   1.580 -1.1160  0.0026 -0.6568
   83SOL     OW  247   2.720   2.428   0.801  0.2514  0.6314 -0.5503
   83SOL    HW1  248   2.632   2.388   0.753 -0.3820  0.5113  0.2936
   83SOL    HW2  249   2.757   2.506   0.743 -2.3750  0.1014 -1.2925
   84SOL     OW  250   0.673   0.004   2.417  0.2202 -0.1056 -0.5634
   84SOL    HW1  251   0.578  -0.011   2.456 -1.5713 -1.1315 -0.8269
   84SOL    HW2  252   0.745  -0.054   2.471  0.2182 -1.9314  0.9522
   85SOL     OW  253   0.332   1.651   1.453  0.4304 -0.0874 -0.0835
   85SOL    HW1  254   0.295   1.745   1.491  2.7530 -0.7612  1.5025
   85SOL    HW2  255   0.370   1.593   1.532 -0.1612 -0.6692  0.8138
   86SOL     OW  256   0.338   0.974   1.488  0.0684 -0.4938 -0.5173
   86SOL    HW1  257   0.335   0.948   1.388  2.6159 -1.8238  0.1094
   86SOL    HW2  258   0.360   0.892   1.545  0.7703  2.0997 -2.0129
   87SOL     OW  259   1.528   0.555   0.205 -0.3540 -0.5080 -0.0086
   87SOL    HW1  260   1.592   0.637   0.215  1.9481  1.0675  1.2346
   87SOL    HW2  261   1.494   0.549   0.105  0.6079  1.4467 -2.2939
   88SOL     OW  262   1.634   1.344   0.201  0.2330  0.3091  0.0471
   88SOL    HW1  263   1.654   1.244   0.211  3.0347  0.6924 -2.8326
   88SOL    HW2  264   1.535   1.365   0.222 -0.1096  3.6413  1.7299
   89SOL     OW  265   2.993   0.449   0.596 -0.0893 -0.1901 -0.4162
   89SOL    HW1  266   3.034   0.360   0.648 -0.2511 -0.2320  2.7567
   89SOL    HW2  267   2.891   0.447   0.573 -0.3902  1.5917  1.0537
   90SOL     OW  268   0.843   1.651   3.077  0.3074  0.0967  0.4914
   90SOL    HW1  269   0.765   1.651   3.144  0.3884  2.4743 -0.5665
   90SOL    HW2  270   0.818   1.629   2.979 -0.6096 -1.3349  1.7772
   91SOL     OW  271   1.261   1.310   1.798 -0.3160 -0.2334 -0.8179
   91SOL    HW1  272   1.290   1.408   1.823 -0.5831 -2.1471 -0.2300
   91SOL    HW2  273   1.339   1.265   1.752  0.8705  0.5225 -1.6452
   92SOL     OW  274   0.061   1.100   1.235 -0.1481 -0.5849 -0.2230
   92SOL    HW1  275   0.153   1.099   1.179  2.4762  1.0676 -0.6286
   92SOL    HW2  276   0.071   1.051   1.328  0.2202 -2.0521  1.5264
   93SOL     OW  277   0.092   2.812   3.074 -0.3881  0.3680 -0.3517
   93SOL    HW1  278   0.000   2.815   3.030 -0.9288 -1.1649  0.1509
   93SOL    HW2  279   0.110   2.716   3.105 -1.2726  1.5247 -1.8670
   94SOL     OW  280   1.502   1.275   1.681 -0.2350  0.1189 -0.4191
   94SOL    HW1  281   1.523   1.231   1.774  0.3933 -1.2034 -3.1216
   94SOL    HW2  282   1.569   1.359   1.677  2.8188  4.8140  3.0354
   95SOL     OW  283   1.450   2.497   2.951  0.2690  0.6965  0.2536
   95SOL    HW1  284   1.384   2.470   3.027  2.3411 -0.0641  0.4801
   95SOL    HW2  285   1.493   2.412   2.916 -0.6825 -0.6800 -0.7370
   96SOL     OW  286   0.530   2.030   1.231 -0.4445 -0.3183 -0.0624
   96SOL    HW1  287   0.500   2.057   1.134 -1.3826  1.0141  1.8117
   96SOL    HW2  288   0.532   1.926   1.236  0.8246 -0.7012  0.1048
   97SOL     OW  289   0.337   1.455   2.455 -0.0915  0.2720  0.0498
   97SOL    HW1  290   0.266   1.388   2.497 -0.6037 -2.0511  1.0595
   97SOL    HW2  291   0.375   1.528   2.522 -1.6548  2.9179 -1.8872
   98SOL     OW  292   2.123   1.659   1.239 -0.1704  0.0466  0.4538
   98SOL    HW1  293   2.098   1.570   1.184  1.0580  1.7845 -2.7221
   98SOL    HW2  294   2.202   1.636   1.299  2.0185  3.1278 -2.5613
   99SOL     OW  295   2.520   2.219   1.413  0.2043 -0.6101 -0.3309
   99SOL    HW1  296   2.508   2.116   1.408  0.6325  0.6534  1.8248
   99SOL    HW2  297   2.568   2.249   1.500  0.2871  0.2134  0.8992
  100SOL     OW  298   2.279   0.369   2.061 -0.8296  0.4413 -0.1833
  100SOL    HW1  299   2.226   0.353   2.151 -0.6481  0.2315  0.9744
  100SOL    HW2  300   2.380   0.352   2.067  0.5547 -0.8942 -1.5027
  101SOL     OW  301   0.374   1.399   0.228 -0.0160  0.2700 -0.4055
  101SOL    HW1  302   0.400   1.420   0.328 -0.9950 -2.2116 -0.1451
  101SOL    HW2  303   0.324   1.477   0.183 -0.0066  0.4186 -0.7040
  102SOL     OW  304   2.234   1.136   0.882 -0.8613 -0.0376  0.0361
  102SOL    HW1  305   2.182   1.056   0.835 -1.0753  2.3205  3.8763
  102SOL    HW2  306   2.259   1.209   0.812 -2.2978 -0.6995 -3.2968
  103SOL     OW  307   2.271   0.101   0.413 -0.8249  0.0177 -0.0171
  103SOL    HW1  308   2.338   0.179   0.387 -0.7740  0.8791  0.8591
  103SOL    HW2  309   2.316   0.024   0.470 -0.6330  1.2693  0.4894
  104SOL     OW  310   0.106   1.850   2.159  0.0901  0.5382 -0.3974
  104SOL    HW1  311   0.144   1.754   2.132  0.6275  0.0025  0.0413
  104SOL    HW2  312   0.009   1.873   2.137  2.2443 -0.7899  3.8036
  105SOL     OW  313   1.061   1.966   0.795  0.0352  0.4194  0.4699
  105SOL    HW1  314   1.025   2.057   0.753 -0.4305  1.9351  1.8425
  105SOL    HW2  315   1.068   1.893   0.719  1.3863  0.0748  0.8111
  106SOL     OW  316   2.091   0.515   1.346  0.2377  0.3930  0.6231
  106SOL    HW1  317   2.046   0.438   1.396 -0.1323 -0.0318 -0.4124
  106SOL    HW2  318   2.078   0.606   1.388 -0.8609 -3.7658  0.3285
  107SOL     OW  319   1.839   3.005   1.119  0.0706  1.2122 -0.5542
  107SOL    HW1  320   1.879   3.086   1.168 -0.1817 -1.4734 -1.6093
  107SOL    HW2  321   1.803   2.936   1.187  0.5754 -1.3278  1.7398
  108SOL     OW  322   0.713   2.676   1.319  0.6247 -0.6125  0.0938
  108SOL    HW1  323   0.700   2.738   1.404  0.2433 -1.5158  2.8617
  108SOL    HW2  324   0.811   2.654   1.301 -1.0020  0.3208 -0.4353
  109SOL     OW  325   2.022   0.178   0.686 -0.3617 -0.4686  0.1584
  109SOL    HW1  326   1.999   0.079   0.709 -3.3093 -2.8821 -1.5351
  109SOL    HW2  327   1.948   0.243   0.730  0.8674  0.1304  0.7364
  110SOL     OW  328   0.516   2.715   2.813 -0.2314  0.0214 -0.3499
  110SOL    HW1  329   0.513   2.764   2.721 -0.4548  0.6175  1.5581
  110SOL    HW2  330   0.589   2.641   2.814  0.5142  0.2899 -0.7408
  111SOL     OW  331   1.276   0.516   2.348  0.0925  0.2026  0.1243
  111SOL    HW1  332   1.214   0.575   2.404  0.8437 -1.3727  1.7199
  111SOL    HW2  333   1.317   0.446   2.413 -1.5742  1.9346  1.7688
  112SOL     OW  334   1.742   0.530   1.410  0.3260 -0.1758 -0.7815
  112SOL    HW1  335   1.724   0.460   1.334 -0.9816 -0.1561 -3.3609
  112SOL    HW2  336   1.745   0.488   1.508  1.6111 -1.4540  1.0604
  113SOL     OW  337   2.258   1.681   1.763 -0.0066  0.5680 -0.1005
  113SOL    HW1  338   2.317   1.598   1.763 -0.7763 -0.5258  0.0039
  113SOL    HW2  339   2.270   1.741   1.849  1.5035  3.8506  1.5553
  114SOL     OW  340   0.428   0.579   1.305  0.2524 -0.4011  0.0745
  114SOL    HW1  341   0.374   0.661   1.281  1.7517 -0.7921  0.0285
  114SOL    HW2  342   0.482   0.540   1.226  0.7919 -0.4709 -1.2092
  115SOL     OW  343   2.711   1.586   1.264 -0.3740  0.2588  0.6599
  115SOL    HW1  344   2.745   1.488   1.274 -0.9094  1.5650  1.8144
  115SOL    HW2  345   2.735   1.625   1.171  0.5084 -2.0653  3.9685
  116SOL     OW  346   1.806   1.066   0.759  0.2794  0.2064  0.0081
  116SOL    HW1  347   1.724   1.017   0.712 -0.9092 -1.2620  0.9771
  116SOL    HW2  348   1.781   1.168   0.770  0.1960  1.6365  0.5086
  117SOL     OW  349   1.075   0.397   0.718  0.2554  0.8824 -0.3496
  117SOL    HW1  350   1.095   0.392   0.821  1.3083 -1.5584 -0.8561
  117SOL    HW2  351   1.070   0.496   0.689 -1.0435 -0.4892  1.5470
  118SOL     OW  352   1.121   1.067   0.957 -0.3880 -0.5467 -0.0009
  118SOL    HW1  353   1.111   0.981   1.015 -0.7011 -3.8397 -2.0252
  118SOL    HW2  354   1.104   1.156   1.003  0.6302 -1.7385 -1.2740
  119SOL     OW  355   1.851   1.609   2.006 -0.1725  0.0453 -0.2271
  119SOL    HW1  356   1.835   1.699   2.047 -1.9971  0.7749  1.8172
  119SOL    HW2  357   1.941   1.566   2.047 -0.3065  2.1931  2.7351
  120SOL     OW  358   2.991   2.766   0.213  0.4259 -0.1702  0.1068
  120SOL    HW1  359   2.921   2.716   0.157  0.2684 -0.8104  1.8178
  120SOL    HW2  360   3.052   2.690   0.247 -0.2311 -1.8035 -1.6038
  121SOL     OW  361   2.108   0.690   2.254  0.7259 -0.7071 -0.2105
  121SOL    HW1  362   2.200   0.702   2.204 -0.4504 -0.5540  0.9247
  121SOL    HW2  363   2.057   0.609   2.223  3.0900 -0.0021 -0.2156
  122SOL     OW  364   2.706   2.573   1.331  0.1107  0.2265  0.3590
  122SOL    HW1  365   2.681   2.591   1.232  2.2306 -2.2741  0.0710
  122SOL    HW2  366   2.665   2.486   1.374  0.9567 -1.9510  2.9053
  123SOL     OW  367   1.721   3.083   1.690  0.4519  0.2678 -0.0182
  123SOL    HW1  368   1.734   2.981   1.700  0.9282  2.9723 -0.3387
  123SOL    HW2  369   1.764   3.122   1.608  0.1055 -0.5592 -0.1049
  124SOL     OW  370   0.147   0.457   0.927  0.0979  0.3774 -0.1356
  124SOL    HW1  371   0.136   0.486   1.026  0.0230  0.7664  0.5086
  124SOL    HW2  372   0.112   0.518   0.845 -0.3225  0.8157 -2.0186
  125SOL     OW  373   0.886   1.692   0.714  0.0996  0.2202 -0.3396
  125SOL    HW1  374   0.985   1.691   0.683 -0.7519  0.7958 -1.5298
  125SOL    HW2  375   0.859   1.613   0.777  0.7823 -2.2846 -2.0394
  126SOL     OW  376   1.866   2.355   2.416 -0.3716  0.0877  0.5413
  126SOL    HW1  377   1.918   2.264   2.402  0.1629  1.3487 -1.8895
  126SOL    HW2  378   1.818   2.390   2.332  0.0450 -0.7494  0.7011
  127SOL     OW  379   1.048   0.956   0.128  0.1162  0.1861  0.2741
  127SOL    HW1  380   1.110   1.001   0.201  2.2610  0.1974  1.8571
  127SOL    HW2  381   0.985   0.877   0.161  0.0942  0.1599 -0.8721
  128SOL     OW  382   0.960   0.214   1.444  0.4092 -0.0605 -0.0698
  128SOL    HW1  383   0.942   0.298   1.386  1.9099 -0.4713 -0.1833
  128SOL    HW2  384   0.889   0.142   1.429 -0.9023  0.1955 -3.9236
  129SOL     OW  385   1.760   0.729   1.824  0.2094 -0.6091  0.8046
  129SOL    HW1  386   1.770   0.739   1.717 -0.3084 -0.1171 -0.7628
  129SOL    HW2  387   1.799   0.810   1.873  0.3838 -0.6724  0.3272
  130SOL     OW  388   1.243   2.108   0.971  0.2669 -0.2054 -0.2016
  130SOL    HW1  389   1.174   2.066   0.908  1.0266 -2.3950  1.1893
  130SOL    HW2  390   1.313   2.163   0.921 -1.9436  1.4736  1.1447
  131SOL     OW  391   3.019   1.535   1.275  0.2414  0.0884  0.3056
  131SOL    HW1  392   2.971   1.444   1.290  1.2530  1.7666 -3.2167
  131SOL    HW2  393   3.123   1.517   1.272  0.6255  1.6550 -0.3871
  132SOL     OW  394   1.950   2.459   0.562 -0.3806 -0.0088 -0.6009
  132SOL    HW1  395   1.852   2.486   0.573  0.9599  1.3530  2.1024
  132SOL    HW2  396   2.007   2.479   0.645 -3.1180 -1.3908 -0.5368
  133SOL     OW  397   1.827   2.245   2.904  0.5335  0.1602 -0.2678
  133SOL    HW1  398   1.810   2.337   2.949  0.5577  0.6416 -1.8940
  133SOL    HW2  399   1.811   2.255   2.805  1.0490  0.6532  2.2260
  134SOL     OW  400   2.633   2.365   1.617 -0.5309  0.6268  0.6049
  134SOL    HW1  401   2.565   2.311   1.682 -0.9174  0.0123  2.4929
  134SOL    HW2  402   2.705   2.413   1.675 -0.7948 -2.0493  0.8807
  135SOL     OW  403   0.769   1.515   2.552  0.2133 -0.8265 -0.6118
  135SOL    HW1  404   0.749   1.409   2.550  0.5610 -0.5669  0.3958
  135SOL    HW2  405   0.845   1.547   2.487  0.3878  0.4191 -1.4630
  136SOL     OW  406   1.131   2.030   0.456  0.0903 -0.1002  0.1968
  136SOL    HW1  407   1.064   2.067   0.525  2.8201 -1.5644  0.6273
  136SOL    HW2  408   1.117   1.929   0.430 -2.7281 -0.3643  0.8547
  137SOL     OW  409   0.402   1.032   2.144 -0.3728  0.8187 -0.3689
  137SOL    HW1  410   0.322   1.083   2.193 -0.9424  3.0475 -1.0178
  137SOL    HW2  411   0.403   0.931   2.160  0.3048  0.2449 -2.2022
  138SOL     OW  412   2.405   1.482   0.381 -0.3038 -0.1746 -0.1800
  138SOL    HW1  413   2.330   1.458   0.318  0.4112 -0.6985 -0.1092
  138SOL    HW2  414   2.434   1.396   0.429 -0.7930 -0.0923  0.7673
  139SOL     OW  415   1.751   2.496   1.183  0.3327  0.2708  0.0639
  139SOL    HW1  416   1.648   2.517   1.187 -1.0635  1.6354 -2.0724
  139SOL    HW2  417   1.786   2.431   1.249 -0.2946  1.0833  1.6629
  140SOL     OW  418   3.003   2.981   2.452  0.2318 -0.0690  0.1724
  140SOL    HW1  419   2.981   2.884   2.483  2.8740 -1.1082 -0.9791
  140SOL    HW2  420   3.105   3.008   2.463 -1.0120  2.6732  1.2924
  141SOL     OW  421   1.131   1.479   1.600  0.0377 -0.2066 -0.1526
  141SOL    HW1  422   1.165   1.547   1.674 -0.6324  2.2947  2.9865
  141SOL    HW2  423   1.164   1.379   1.613 -1.7022  1.3661 -0.8323
  142SOL     OW  424   1.510   0.612   2.233 -0.3118  0.3598  0.2505
  142SOL    HW1  425   1.490   0.607   2.134  1.5258  1.1551  1.0679
  142SOL    HW2  426   1.424   0.577   2.283  0.1153 -0.8512  1.4718
  143SOL     OW  427   2.748   0.848   0.491  0.5526 -0.1389 -0.0743
  143SOL    HW1  428   2.794   0.897   0.410 -0.7359 -0.9802 -2.1700
  143SOL    HW2  429   2.762   0.902   0.576  1.8197  0.9311 -3.6452
  144SOL     OW  430   2.981   1.268   1.352 -0.2089 -0.1071 -0.4253
  144SOL    HW1  431   2.965   1.247   1.454 -1.1173 -0.2338  0.1396
  144SOL    HW2  432   3.059   1.205   1.312  3.1530 -1.4584 -1.0058
  145SOL     OW  433   0.993   1.853   0.077 -0.3976 -0.3198 -0.2276
  145SOL    HW1  434   1.016   1.935   0.016  0.0568 -1.5785 -0.5404
  145SOL    HW2  435   0.943   1.775   0.023  0.3802  1.6351 -2.6263
  146SOL     OW  436   2.499   0.642   1.514 -0.4890  0.0829  0.2380
  146SOL    HW1  437   2.445   0.570   1.467 -0.3043  1.4111  1.8622
  146SOL    HW2  438   2.453   0.733   1.533  2.2561 -1.6100 -0.2380
  147SOL     OW  439   1.103   2.594   0.662 -0.0859  0.1639  0.5141
  147SOL    HW1  440   1.055   2.642   0.582 -1.2752 -0.3727 -2.7069
  147SOL    HW2  441   1.177   2.534   0.627 -0.8134  2.9295  2.8360
  148SOL     OW  442   1.655   1.386   3.043 -0.3906 -0.8160  0.0086
  148SOL    HW1  443   1.709   1.308   3.001  0.2354 -2.6840  2.3777
  148SOL    HW2  444   1.623   1.359   3.139  0.0031 -0.9597 -3.0685
  149SOL     OW  445   0.608   1.434   1.972  0.1213  0.4113  0.2246
  149SOL    HW1  446   0.528   1.389   2.023 -1.8007 -0.2905  1.3146
  149SOL    HW2  447   0.648   1.369   1.903 -0.1682 -2.5292  2.0293
  150SOL     OW  448   2.997   1.272   0.888 -0.6404 -0.0318 -0.4503
  150SOL    HW1  449   3.070   1.331   0.938 -2.6915  0.0837  0.3966
  150SOL    HW2  450   2.999   1.178   0.927 -1.1095  0.7812 -3.5459
  151SOL     OW  451   0.175   0.809   2.091 -0.1786  0.3227  0.2438
  151SOL    HW1  452   0.170   0.892   2.029  2.4487  1.4594  1.2213
  151SOL    HW2  453   0.258   0.746   2.066 -0.5938  0.6567 -1.4627
  152SOL     OW  454   1.387   1.738   1.253  0.3615  0.3179 -0.2445
  152SOL    HW1  455   1.382   1.818   1.315 -0.8671 -1.3476 -0.0549
  152SOL    HW2  456   1.307   1.731   1.188 -0.0920 -1.2477 -1.1690
  153SOL     OW  457   0.047   1.500   0.159  0.0090  0.3376 -0.0094
  153SOL    HW1  458   0.034   1.395   0.156 -0.3760  0.5928 -1.0311
  153SOL    HW2  459   0.042   1.534   0.255  0.8778  0.9676 -0.8386
  154SOL     OW  460   2.429   1.943   2.817 -0.4320 -0.1382 -0.0008
  154SOL    HW1  461   2.455   1.850   2.851  0.3966  1.4854 -1.7750
  154SOL    HW2  462   2.478   1.978   2.734  1.7337 -0.3168 -1.1746
  155SOL     OW  463   2.534   1.240   0.486  0.2293 -0.0813 -0.3898
  155SOL    HW1  464   2.617   1.246   0.421  1.1238  0.0272  3.0485
  155SOL    HW2  465   2.479   1.154   0.463 -0.9599  0.8808 -1.9635
  156SOL     OW  466   2.480   0.998   0.886 -0.1293 -0.5642  0.2460
  156SOL    HW1  467   2.385   1.030   0.900  1.3166  0.1450 -2.3801
  156SOL    HW2  468   2.550   1.073   0.896 -1.6420 -0.4602  2.7954
  157SOL     OW  469   1.349   2.966   3.086  0.1116 -0.2366 -0.5962
  157SOL    HW1  470   1.378   2.893   3.016  0.8122 -3.2566  0.4606
  157SOL    HW2  471   1.385   3.064   3.067  1.6848 -0.6114  1.2434
  158SOL     OW  472   1.064   1.889   2.029  0.0302 -0.1511 -0.1702
  158SOL    HW1  473   1.105   1.880   2.125  1.2729 -1.0215  1.7526
  158SOL    HW2  474   0.960   1.901   2.036 -2.6942  1.7074  1.7932
  159SOL     OW  475   0.874   0.473   1.272 -0.3261 -0.6485  0.0943
  159SOL    HW1  476   0.841   0.541   1.344 -0.0066  2.6934  0.4929
  159SOL    HW2  477   0.813   0.464   1.189 -1.1305 -2.2378  1.3727
  160SOL     OW  478   1.453   2.326   1.653  0.0566 -0.0817  0.2931
  160SOL    HW1  479   1.517   2.404   1.618  1.6139  0.3964 -1.0380
  160SOL    HW2  480   1.489   2.283   1.739  0.0451 -2.6897  0.1513
  161SOL     OW  481   0.097   2.939   0.363 -0.2791  0.3787  0.3229
  161SOL    HW1  482   0.038   2.856   0.335 -0.8411 -0.8828 -1.0718
  161SOL    HW2  483   0.125   2.992   0.280 -1.3236 -2.1709 -0.5548
  162SOL     OW  484   2.600   1.888   0.516 -0.0327 -0.3489 -0.7503
  162SOL    HW1  485   2.570   1.854   0.424  0.1039  3.9852 -0.5707
  162SOL    HW2  486   2.578   1.816   0.590  1.8842 -0.6043 -0.2139
  163SOL     OW  487   1.942   2.769   0.740  0.3840 -0.4098  0.0497
  163SOL    HW1  488   1.917   2.786   0.638 -0.4858 -1.0191 -0.9781
  163SOL    HW2  489   1.986   2.676   0.755 -0.2435 -1.2160  0.7306
  164SOL     OW  490   0.062   0.215   1.212 -0.0195 -0.4226  0.2233
  164SOL    HW1  491   0.143   0.149   1.221 -0.9624 -0.9672 -0.3473
  164SOL    HW2  492   0.074   0.309   1.254 -0.1153 -1.9009  0.8298
  165SOL     OW  493   1.019   1.433   0.643 -0.1609 -0.2982 -0.1873
  165SOL    HW1  494   0.925   1.464   0.678  0.0665 -2.2654 -0.3615
  165SOL    HW2  495   1.016   1.455   0.541 -2.8581  1.9877  2.3949
  166SOL     OW  496   1.385   1.014   1.809 -0.1268 -0.5386 -0.7416
  166SOL    HW1  497   1.295   0.972   1.840  2.5269  0.8519  1.2451
  166SOL    HW2  498   1.446   1.017   1.892  1.2456  1.2022 -1.0606
  167SOL     OW  499   0.927   1.833   1.589 -0.0786 -0.2909  0.2936
  167SOL    HW1  500   0.904   1.925   1.632  0.1256 -1.4476  0.2505
  167SOL    HW2  501   0.846   1.790   1.537  0.2087  1.3168  0.8113
  168SOL     OW  502   1.566   2.323   0.207  0.4735 -0.4418  0.0816
  168SOL    HW1  503   1.639   2.364   0.147  0.3921 -1.1687 -1.2651
  168SOL    HW2  504   1.590   2.319   0.308  0.5752 -0.2027 -0.4015
  169SOL     OW  505   0.177   2.564   2.147  0.0159 -0.2456  0.0825
  169SOL    HW1  506   0.223   2.489   2.089  0.8903 -2.1355 -1.3358
  169SOL    HW2  507   0.149   2.535   2.244  0.8543  0.8773  2.6580
  170SOL     OW  508   1.228   0.347   1.918 -0.3370  0.2906 -0.0994
  170SOL    HW1  509   1.267   0.278   1.988  0.6883 -1.4083 -0.7508
  170SOL    HW2  510   1.155   0.304   1.863  0.2194 -1.2965  1.1828
  171SOL     OW  511   0.235   0.816   2.382  0.5221 -0.9116  0.5286
  171SOL    HW1  512   0.150   0.827   2.434  1.6121 -1.5512  0.2908
  171SOL    HW2  513   0.219   0.843   2.280  0.9319  1.0071 -2.3140
  172SOL     OW  514   0.884   1.133   2.896 -0.0534  0.4208 -0.2037
  172SOL    HW1  515   0.978   1.144   2.936  0.5644  0.1392  2.1574
  172SOL    HW2  516   0.892   1.094   2.804 -3.2252 -1.2058  0.6684
  173SOL     OW  517   0.706   2.718   0.128 -0.4122 -0.2822 -0.0298
  173SOL    HW1  518   0.706   2.821   0.118 -1.5694 -0.2545  0.5884
  173SOL    HW2  519   0.613   2.676   0.109 -3.4902 -1.4618 -0.8584
  174SOL     OW  520   1.264   2.726   1.054 -0.0561 -0.2115 -0.0300
  174SOL    HW1  521   1.284   2.787   0.971 -0.4741  0.9136  1.3327
  174SOL    HW2  522   1.224   2.634   1.024 -0.5985 -1.6837 -0.0257
  175SOL     OW  523   0.381   0.042   1.703  0.5169  0.2583  0.0713
  175SOL    HW1  524   0.435   0.102   1.772  1.1060 -0.2477  2.8256
  175SOL    HW2  525   0.296   0.085   1.662 -0.8579 -1.9059 -0.5632
  176SOL     OW  526   2.605   0.318   3.034  0.1783  0.8336  0.2038
  176SOL    HW1  527   2.583   0.381   3.113  2.2045  0.7158 -0.2628
  176SOL    HW2  528   2.576   0.223   3.045 -0.3972 -2.4839 -0.3385
  177SOL     OW  529   0.387   0.303   0.873  0.2072  0.0609 -0.4765
  177SOL    HW1  530   0.430   0.280   0.965  1.7197 -1.2038  1.5842
  177SOL    HW2  531   0.291   0.345   0.878  1.0095 -2.1340  0.7693
  178SOL     OW  532   3.100   2.706   2.607  0.1968 -0.4162 -0.4918
  178SOL    HW1  533   3.025   2.674   2.671 -1.9524 -0.0438  1.3272
  178SOL    HW2  534   3.179   2.733   2.670  0.4913  0.5653  0.6046
  179SOL     OW  535   0.010   1.758   1.170 -0.4754 -0.2228 -0.4457
  179SOL    HW1  536  -0.037   1.843   1.197 -0.5117 -0.6476  2.5865
  179SOL    HW2  537  -0.048   1.681   1.208 -3.8960  2.6288 -1.3705
  180SOL     OW  538   0.174   1.271   1.801 -0.7120 -0.1488 -0.6844
  180SOL    HW1  539   0.280   1.255   1.803 -0.3780 -1.4857  0.0482
  180SOL    HW2  540   0.132   1.324   1.881  0.1618  0.2865  0.0819
  181SOL     OW  541   3.024   1.836   2.519  0.1277  0.0555  0.1839
  181SOL    HW1  542   3.091   1.898   2.483  0.7950  1.7044  0.3054
  181SOL    HW2  543   2.931   1.853   2.468 -0.9226 -0.5174 -0.5368
  182SOL     OW  544   2.317   1.221   1.246 -0.0564  0.0863  0.3365
  182SOL    HW1  545   2.235   1.180   1.195 -2.9817 -0.7018  1.4400
  182SOL    HW2  546   2.329   1.318   1.212 -0.1390 -1.2004 -0.8483
  183SOL     OW  547   1.514   2.268   2.490  0.1646 -0.7274 -0.2195
  183SOL    HW1  548   1.434   2.200   2.494 -0.7800 -0.9917 -2.1830
  183SOL    HW2  549   1.597   2.238   2.544  0.9377  1.6455 -1.1292
  184SOL     OW  550   2.080   0.956   0.770 -0.8970  0.1826 -0.3251
  184SOL    HW1  551   1.977   0.981   0.757 -0.1943 -0.1803  0.1221
  184SOL    HW2  552   2.087   0.861   0.810  1.0768 -1.2675  1.4602
  185SOL     OW  553   1.628   2.742   2.173  0.0253  0.2555  0.1917
  185SOL    HW1  554   1.588   2.835   2.158 -0.1574 -2.5653  0.1677
  185SOL    HW2  555   1.656   2.722   2.272  2.2445 -1.8826  0.7648
  186SOL     OW  556   0.084   2.196   1.646 -0.3194 -0.4461  0.5373
  186SOL    HW1  557   0.143   2.279   1.624  1.6664 -1.2655 -1.3435
  186SOL    HW2  558   0.135   2.117   1.684 -1.1987 -0.9864  1.2028
  187SOL     OW  559   1.411   0.685   1.708  0.3110 -0.0920 -0.8964
  187SOL    HW1  560   1.460   0.741   1.637  0.2191 -2.3789 -0.0406
  187SOL    HW2  561   1.448   0.702   1.806 -0.3065  0.8450  2.3780
  188SOL     OW  562   2.760   2.738   1.535  0.1984 -0.4708  0.8065
  188SOL    HW1  563   2.752   2.833   1.491  1.4148 -2.3915 -0.4394
  188SOL    HW2  564   2.736   2.662   1.467 -1.5571 -1.5371 -0.3230
  189SOL     OW  565   0.723   0.981   1.460  0.1525 -0.0629  0.0290
  189SOL    HW1  566   0.814   1.030   1.429  0.1279 -1.0152  3.0595
  189SOL    HW2  567   0.684   0.923   1.382 -0.6267 -3.5123 -1.8250
  190SOL     OW  568   1.491   1.763   1.655 -0.2236  0.0886 -0.2011
  190SOL    HW1  569   1.448   1.822   1.582 -1.6587  0.4829  0.1216
  190SOL    HW2  570   1.562   1.814   1.710 -1.5618  2.6267  1.5839
  191SOL     OW  571   1.037   0.849   1.546  0.6985 -0.1449 -0.0280
  191SOL    HW1  572   1.054   0.743   1.558  3.0722  0.6032  3.8239
  191SOL    HW2  573   1.131   0.900   1.552  2.0941  1.5351  0.3786
  192SOL     OW  574   1.884   2.167   1.240  0.5465 -0.1317  0.1779
  192SOL    HW1  575   1.782   2.173   1.229  3.4141 -0.2512  1.5952
  192SOL    HW2  576   1.949   2.226   1.185 -2.2723  0.2686  2.7203
  193SOL     OW  577   0.493   0.568   0.344 -0.5838 -0.2479  0.1238
  193SOL    HW1  578   0.436   0.497   0.389  1.0216 -0.0656 -1.0922
  193SOL    HW2  579   0.532   0.533   0.255  1.0035  0.9566 -1.8393
  194SOL     OW  580   0.304   0.863   1.236 -0.6061 -0.0806  0.5898
  194SOL    HW1  581   0.214   0.812   1.239  1.2949 -1.2990  1.7219
  194SOL    HW2  582   0.315   0.936   1.162  2.6123 -0.2837 -0.3835
  195SOL     OW  583   0.955   2.922   0.529  0.4460  0.1441  0.4196
  195SOL    HW1  584   0.976   2.832   0.490 -1.3188  1.2255  2.2929
  195SOL    HW2  585   1.039   2.972   0.551  0.0828 -0.5756  0.2902
  196SOL     OW  586   0.178   1.449   1.318  0.4465 -0.1349  0.2993
  196SOL    HW1  587   0.217   1.530   1.371  1.5728 -0.5891  0.5590
  196SOL    HW2  588   0.166   1.359   1.370 -0.5747 -2.2369  0.8770
  197SOL     OW  589   0.783   1.997   0.245  0.5860  0.0642  0.4966
  197SOL    HW1  590   0.767   1.944   0.334  1.1394 -2.5147 -0.1569
  197SOL    HW2  591   0.860   1.962   0.186  0.7901 -1.1985 -0.9216
  198SOL     OW  592   0.262   1.166   0.214 -0.0276 -0.2955  0.3841
  198SOL    HW1  593   0.161   1.177   0.196 -0.4243  2.3572 -0.2516
  198SOL    HW2  594   0.313   1.259   0.215 -2.0176 -1.1365  2.7164
  199SOL     OW  595   2.259   0.429   2.459 -0.9009  0.1743  0.3250
  199SOL    HW1  596   2.216   0.363   2.527  0.4803  0.8691  0.2804
  199SOL    HW2  597   2.353   0.457   2.482 -1.9045 -1.3406  0.3115
  200SOL     OW  598   0.035   2.897   0.828 -0.6854 -0.1347  0.2229
  200SOL    HW1  599  -0.049   2.883   0.774  2.8884 -1.3869  0.3337
  200SOL    HW2  600   0.054   2.998   0.855  0.3623 -1.2801 -2.0521
  201SOL     OW  601   1.088   0.645   0.579  0.2329 -0.0657  0.7442
  201SOL    HW1  602   1.117   0.733   0.617  0.4855  1.2141 -0.6565
  201SOL    HW2  603   0.983   0.640   0.552  0.0662 -0.6737 -0.0061
  202SOL     OW  604   0.425   1.202   1.789  0.3337 -0.3975  0.2110
  202SOL    HW1  605   0.446   1.173   1.689  1.3515  1.3599 -2.2340
  202SOL    HW2  606   0.491   1.153   1.857  0.2132  1.0883 -0.2975
  203SOL     OW  607   0.607   0.255   1.552 -0.1631  0.1907 -0.5948
  203SOL    HW1  608   0.624   0.182   1.476  0.5787 -1.6103  1.4850
  203SOL    HW2  609   0.646   0.219   1.641 -1.7281  0.0455  0.5816
  204SOL     OW  610   2.133   1.899   3.019  0.1161 -0.0865 -0.6030
  204SOL    HW1  611   2.137   1.799   2.980  2.0320 -1.3803 -0.6302
  204SOL    HW2  612   2.108   1.971   2.951  0.9354  1.7671  3.5953
  205SOL     OW  613   1.875   1.857   0.159 -0.3977 -0.0086 -0.1102
  205SOL    HW1  614   1.970   1.849   0.110  2.0948 -1.2975  0.4514
  205SOL    HW2  615   1.809   1.922   0.111  0.8067 -0.3213 -0.9860
  206SOL     OW  616   2.494   2.799   0.368 -0.3416 -0.7006 -0.1497
  206SOL    HW1  617   2.571   2.754   0.419  0.7491  1.1676 -0.9190
  206SOL    HW2  618   2.533   2.848   0.287 -2.0849 -1.2597  0.3626
  207SOL     OW  619   0.533   1.728   2.896  0.1173  0.3909 -0.5590
  207SOL    HW1  620   0.625   1.707   2.850 -0.7462 -0.7398  0.1463
  207SOL    HW2  621   0.500   1.642   2.953  0.7884  0.0977 -1.3683
  208SOL     OW  622   1.034   1.415   1.350 -0.9145  0.0528  0.5824
  208SOL    HW1  623   0.950   1.474   1.328 -0.3637  0.7302 -2.3101
  208SOL    HW2  624   1.074   1.443   1.442  1.4296 -0.6599 -2.8698
  209SOL     OW  625   0.146   0.904   0.007 -0.0776 -0.0423  0.8032
  209SOL    HW1  626   0.147   0.850  -0.078  3.1783 -0.8034  1.2375
  209SOL    HW2  627   0.208   0.859   0.084 -1.1025  1.3509 -2.5462
  210SOL     OW  628   1.728   0.428   1.150  0.5355 -0.3881 -0.1271
  210SOL    HW1  629   1.703   0.521   1.117  0.3269 -2.9626 -0.2866
  210SOL    HW2  630   1.830   0.406   1.138  2.4090  1.9032  1.3447
  211SOL     OW  631   2.109   1.047   1.634  0.2596 -0.2282  0.2252
  211SOL    HW1  632   2.143   0.985   1.709 -1.4814 -1.7629  0.4460
  211SOL    HW2  633   2.176   1.107   1.582 -0.3548  0.8877 -0.4056
  212SOL     OW  634   0.030   0.998   1.488 -0.4094  0.8662  0.5724
  212SOL    HW1  635   0.067   1.087   1.528 -0.1071  1.2156  0.8217
  212SOL    HW2  636   0.052   0.922   1.553 -2.3715  1.4508 -0.1109
  213SOL     OW  637   2.795   0.338   0.305  0.5859 -0.3398  0.1792
  213SOL    HW1  638   2.879   0.277   0.307  0.1582  1.0598 -0.0508
  213SOL    HW2  639   2.764   0.363   0.212 -1.4848 -1.4745  1.6200
  214SOL     OW  640   2.100   0.306   2.269 -0.6817  0.6669 -0.3265
  214SOL    HW1  641   2.143   0.367   2.342  1.3105 -0.1609 -0.3972
  214SOL    HW2  642   2.105   0.204   2.297 -3.3672 -1.8057 -1.8585
  215SOL     OW  643   1.727   2.287   2.040 -0.3072 -0.3863  0.4495
  215SOL    HW1  644   1.827   2.317   2.024 -3.7113 -2.2425  0.5146
  215SOL    HW2  645   1.685   2.347   2.114 -1.8313  2.4480 -1.4374
  216SOL     OW  646   2.262   0.520   0.648  0.7648 -0.3326  0.5832
  216SOL    HW1  647   2.194   0.458   0.594 -1.3771 -0.5571  1.5049
  216SOL    HW2  648   2.293   0.589   0.584  0.0446 -0.8706  2.1382
  217SOL     OW  649   0.779   2.782   2.429 -0.2486  0.2885  0.4647
  217SOL    HW1  650   0.738   2.700   2.475  0.4418 -1.1270  1.7561
  217SOL    HW2  651   0.775   2.783   2.328 -0.6157  0.4790  0.8478
  218SOL     OW  652   1.950   1.449   3.058  0.0269 -0.1787  0.3897
  218SOL    HW1  653   1.845   1.469   3.058 -0.5111  0.2346  1.5051
  218SOL    HW2  654   1.973   1.355   3.100  1.9425  0.1508 -0.8378
  219SOL     OW  655   2.369   1.295   2.597 -0.0100 -0.2163  0.4144
  219SOL    HW1  656   2.417   1.272   2.505  1.6729  2.3768 -0.6409
  219SOL    HW2  657   2.390   1.231   2.675  0.3108 -2.4572 -0.6507
  220SOL     OW  658   1.502   1.006   1.297 -0.7998  0.0454 -0.0315
  220SOL    HW1  659   1.593   1.018   1.345  1.5861 -1.5747 -0.0444
  220SOL    HW2  660   1.466   1.093   1.264 -1.4852  0.7979  0.9437
  221SOL     OW  661   1.315   1.108   2.183  0.2676 -0.7110 -0.5756
  221SOL    HW1  662   1.262   1.185   2.131 -0.3683 -1.1772 -0.0183
  221SOL    HW2  663   1.388   1.058   2.126  0.5599 -2.3953 -0.2584
  222SOL     OW  664   1.351   0.154   1.116  0.1478  0.9626 -0.0262
  222SOL    HW1  665   1.430   0.086   1.091 -0.2258  0.5573  0.3821
  222SOL    HW2  666   1.364   0.219   1.193 -2.5555 -0.2053  1.0786
  223SOL     OW  667   2.898   0.768   2.010  0.3209  0.3743 -0.0322
  223SOL    HW1  668   2.936   0.742   2.103 -0.8316  1.3050 -0.6331
  223SOL    HW2  669   2.893   0.870   1.987  1.2086 -0.5409 -3.5019
  224SOL     OW  670   1.561   1.046   2.784 -0.0947 -0.2225 -0.5290
  224SOL    HW1  671   1.585   0.960   2.720  2.0737 -1.5488  0.7551
  224SOL    HW2  672   1.528   1.130   2.731  2.2153 -1.0251  0.1888
  225SOL     OW  673   2.963   2.839   2.922  0.0887 -0.1854 -0.2529
  225SOL    HW1  674   2.915   2.759   2.869 -0.9398  0.0964 -1.2557
  225SOL    HW2  675   2.980   2.923   2.859 -0.4691  2.3246 -0.7514
  226SOL     OW  676   2.463   1.682   2.882  0.0371 -0.5256 -0.0457
  226SOL    HW1  677   2.485   1.625   2.795 -0.6943  0.8211  0.9318
  226SOL    HW2  678   2.454   1.635   2.974 -1.1025 -2.3113  1.3195
  227SOL     OW  679   0.807   0.168   2.953 -0.2506  0.0696  0.1420
  227SOL    HW1  680   0.859   0.106   3.021  1.3845 -0.5317  0.7830
  227SOL    HW2  681   0.834   0.158   2.856  1.6463 -1.4219  0.8868
  228SOL     OW  682   2.329   0.542   2.763 -0.2111  0.5625 -0.1584
  228SOL    HW1  683   2.286   0.585   2.677 -0.7708 -1.6130 -1.6796
  228SOL    HW2  684   2.426   0.507   2.743  0.6826 -2.2182 -0.8852
  229SOL     OW  685   0.570   0.466   1.897  0.7020 -0.2695 -0.1391
  229SOL    HW1  686   0.621   0.480   1.812 -2.1098 -1.5310  0.3694
  229SOL    HW2  687   0.626   0.466   1.979 -3.3034  0.2154 -0.3856
  230SOL     OW  688   1.936   1.268   2.122  0.9401  0.1746 -0.0834
  230SOL    HW1  689   2.010   1.276   2.046  1.3186 -2.4670  1.2517
  230SOL    HW2  690   1.846   1.303   2.095  0.0777  0.2157  1.0583
  231SOL     OW  691   0.590   1.129   2.937  0.1115  0.2312  0.4298
  231SOL    HW1  692   0.691   1.099   2.921  4.0328 -0.8571  1.0506
  231SOL    HW2  693   0.539   1.093   3.023  1.5416 -1.6140  0.2260
  232SOL     OW  694   2.487   0.068   2.703  0.2010 -0.0176 -0.2692
  232SOL    HW1  695   2.554   0.004   2.747  0.1103 -0.4117  1.1555
  232SOL    HW2  696   2.496   0.070   2.597 -0.2851 -0.3591  0.3243
  233SOL     OW  697   1.735   1.278   1.097 -0.0179  0.2296  0.0815
  233SOL    HW1  698   1.706   1.276   1.000  0.4213 -1.4017  2.2905
  233SOL    HW2  699   1.825   1.228   1.108  0.9431  0.1276 -0.9816
  234SOL     OW  700   1.670   2.591   1.959  0.2039 -0.3051  0.0688
  234SOL    HW1  701   1.663   2.663   2.033 -0.4689 -2.3724  1.2675
  234SOL    HW2  702   1.592   2.527   1.952  4.3116 -2.5725 -0.2245
  235SOL     OW  703   3.053   3.065   2.824  0.0199 -0.2811  0.2131
  235SOL    HW1  704   3.150   3.068   2.784 -0.2931 -0.3313 -1.2659
  235SOL    HW2  705   3.026   3.150   2.874  1.8166  2.5873  1.1165
  236SOL     OW  706   2.886   0.716   0.043  0.2107  0.3712  0.1690
  236SOL    HW1  707   2.948   0.746   0.121  0.0092  2.5997  0.0678
  236SOL    HW2  708   2.939   0.667  -0.036 -1.1590  0.6978 -1.2285
  237SOL     OW  709   1.500   1.583   1.049 -0.3450 -0.1830 -0.7154
  237SOL    HW1  710   1.604   1.589   1.055 -0.6376 -1.2725  3.3618
  237SOL    HW2  711   1.451   1.644   1.123 -2.5588 -2.1631  2.5977
  238SOL     OW  712   1.728   1.331   0.744  0.3256  0.4328  0.5838
  238SOL    HW1  713   1.807   1.342   0.682 -0.7199  0.4299  0.7361
  238SOL    HW2  714   1.664   1.409   0.738  2.4999  1.2621  1.7606
  239SOL     OW  715   2.141   0.290   2.672  0.2774  0.4225  0.4475
  239SOL    HW1  716   2.211   0.282   2.746 -1.1559  1.6374 -1.2307
  239SOL    HW2  717   2.067   0.361   2.692 -1.0397 -0.4570  0.6040
  240SOL     OW  718   0.902   0.736   0.226  0.2540 -0.0128  0.4024
  240SOL    HW1  719   0.858   0.663   0.166 -1.0305 -0.7738 -0.0787
  240SOL    HW2  720   0.889   0.701   0.322  0.3792 -1.0847 -0.1672
  241SOL     OW  721   0.580   0.042   0.360 -0.0378 -0.2035 -0.3228
  241SOL    HW1  722   0.601  -0.008   0.272 -0.8620  0.5101 -1.0597
  241SOL    HW2  723   0.513  -0.003   0.422  2.3978 -1.2291  1.0071
  242SOL     OW  724   0.693   2.430   1.098 -0.6863 -0.3535  0.4041
  242SOL    HW1  725   0.640   2.506   1.145  0.1466 -0.3198  2.5159
  242SOL    HW2  726   0.764   2.466   1.028 -0.4780  1.1074 -1.8706
  243SOL     OW  727   1.047   0.658   2.499 -0.1268 -0.4928 -0.0480
  243SOL    HW1  728   1.000   0.727   2.435  4.0454  0.5296 -0.1872
  243SOL    HW2  729   0.989   0.572   2.511  1.3031  0.3726  0.9463
  244SOL     OW  730   2.821   1.967   2.352 -0.2389 -0.0037 -0.5915
  244SOL    HW1  731   2.859   1.945   2.254 -2.2801 -0.3219 -0.6400
  244SOL    HW2  732   2.721   1.943   2.364  0.6837 -2.3093  0.3416
  245SOL     OW  733   2.475   0.719   2.189  0.0155 -0.2961  0.1460
  245SOL    HW1  734   2.502   0.793   2.254  1.0776 -0.9324 -1.3064
  245SOL    HW2  735   2.551   0.656   2.163 -1.4276 -1.8307 -0.5341
  246SOL     OW  736   0.333   2.867   1.777  0.0740 -0.6439  0.7904
  246SOL    HW1  737   0.231   2.880   1.773 -1.4996  1.5327 -0.3385
  246SOL    HW2  738   0.384   2.949   1.746 -3.4977 -1.0919  0.9339
  247SOL     OW  739   2.190   0.536   3.001 -0.0491 -0.2995 -0.1930
  247SOL    HW1  740   2.237   0.537   2.912 -0.8150  0.0740  2.4747
  247SOL    HW2  741   2.119   0.612   3.002  1.2934  0.8522 -0.5799
  248SOL     OW  742   2.195   1.831   1.519  0.5052 -0.0542  0.2275
  248SOL    HW1  743   2.218   1.764   1.593  0.4662 -0.1738  1.1766
  248SOL    HW2  744   2.147   1.912   1.559  1.1379 -0.1155  0.5120
  249SOL     OW  745   1.985   2.028   1.917  0.3048 -0.2536  0.3538
  249SOL    HW1  746   1.989   1.946   1.850  2.2275 -0.9246  0.9621
  249SOL    HW2  747   2.082   2.050   1.958  0.2802  0.9963 -0.7706
  250SOL     OW  748   1.062   0.617   1.907  0.0450  0.1566  0.1048
  250SOL    HW1  749   1.085   0.559   1.997  0.8466 -1.7958 -0.8254
  250SOL    HW2  750   1.074   0.554   1.828 -1.0508 -0.2455  2.9301
  251SOL     OW  751   3.060   1.556   2.616  0.1728  0.1600  0.1806
  251SOL    HW1  752   3.057   1.651   2.573  0.2667 -1.1639  0.7441
  251SOL    HW2  753   2.967   1.507   2.624 -0.1980 -1.6620 -0.3037
  252SOL     OW  754   1.542   0.903   1.578 -0.4819  0.2352  0.2396
  252SOL    HW1  755   1.560   0.975   1.508 -3.0632 -2.0043  0.2924
  252SOL    HW2  756   1.492   0.943   1.662  1.6235  1.2318  2.3393
  253SOL     OW  757   1.001   1.519   0.389  0.1047 -0.5404 -0.7853
  253SOL    HW1  758   1.052   1.464   0.326 -1.5300 -0.0318 -0.3611
  253SOL    HW2  759   0.900   1.519   0.349 -1.1275 -2.2565  1.0506
  254SOL     OW  760   2.026   2.066   1.592 -0.6853 -0.0468  0.1660
  254SOL    HW1  761   1.961   2.010   1.532  1.2553 -0.8812 -0.7202
  254SOL    HW2  762   1.976   2.110   1.666 -0.6483 -1.1233 -0.9836
  255SOL     OW  763   0.087   1.155   2.986  0.0195  0.0006 -0.6305
  255SOL    HW1  764   0.159   1.226   2.973  2.2197  0.6465  1.1915
  255SOL    HW2  765   0.129   1.061   3.021 -0.1903  2.7102  0.2701
  256SOL     OW  766   2.775   1.317   1.838  0.5903  0.1924  0.2292
  256SOL    HW1  767   2.729   1.324   1.747 -2.6192  0.2218  0.8842
  256SOL    HW2  768   2.711   1.295   1.911 -1.3139  0.4182 -0.4125
  257SOL     OW  769   0.812   0.196   1.852  0.4507  0.5876 -0.7105
  257SOL    HW1  770   0.859   0.278   1.809 -1.0747  0.2848  0.8476
  257SOL    HW2  771   0.881   0.137   1.898 -1.5341  1.2894 -3.6613
  258SOL     OW  772   2.955   1.264   0.412  0.8596  0.3208  0.5050
  258SOL    HW1  773   2.895   1.333   0.366  2.4325 -0.1702  0.6611
  258SOL    HW2  774   3.004   1.292   0.498  0.4866 -1.0687 -0.3527
  259SOL     OW  775   0.467   2.920   2.966 -0.1014 -0.4551 -0.2630
  259SOL    HW1  776   0.424   2.889   3.056 -0.2501 -1.9981  1.7086
  259SOL    HW2  777   0.492   2.834   2.911 -1.2797 -0.5534 -2.3827
  260SOL     OW  778   2.685   0.749   2.686  0.0828  0.4686 -0.3425
  260SOL    HW1  779   2.596   0.794   2.657  0.2665  3.1721  0.0475
  260SOL    HW2  780   2.656   0.666   2.740 -1.0462 -1.1438 -1.4605
  261SOL     OW  781   2.723   1.306   1.351  0.1291  0.0866 -1.0879
  261SOL    HW1  782   2.654   1.234   1.324 -0.8807 -1.1647  1.3079
  261SOL    HW2  783   2.819   1.271   1.356  0.4309 -0.4320 -0.6588
  262SOL     OW  784   1.488   2.949   2.057 -0.6553 -0.3824 -0.3389
  262SOL    HW1  785   1.493   3.022   1.980 -1.8585 -0.3926  0.7728
  262SOL    HW2  786   1.430   2.865   2.039 -2.0985 -0.1564  0.8128
  263SOL     OW  787   0.833   0.714   2.312 -0.4121 -0.2009  0.0635
  263SOL    HW1  788   0.776   0.638   2.272 -0.3179 -1.3068 -0.4941
  263SOL    HW2  789   0.856   0.790   2.243 -0.4847 -0.9941  0.5431
  264SOL     OW  790   2.294   0.713   0.471 -0.2004 -0.0694 -0.9256
  264SOL    HW1  791   2.199   0.741   0.481  1.7625 -1.1004 -1.3039
  264SOL    HW2  792   2.367   0.784   0.490  2.6973 -0.4432  0.1228
  265SOL     OW  793   0.912   2.272   2.712 -0.1797  0.8213  0.7133
  265SOL    HW1  794   0.976   2.345   2.742  0.9793 -1.3925 -0.6492
  265SOL    HW2  795   0.884   2.205   2.791 -0.1237 -1.0511 -1.7271
  266SOL     OW  796   1.309   1.730   0.009 -0.0035  0.3778 -0.2979
  266SOL    HW1  797   1.302   1.794   0.089  3.6891 -2.1420 -2.6139
  266SOL    HW2  798   1.407   1.689  -0.002  0.1226 -0.3032 -1.7563
  267SOL     OW  799   1.122   0.019   2.286 -0.6433 -0.0712 -0.0038
  267SOL    HW1  800   1.079  -0.060   2.236  1.5749 -0.5317 -1.1548
  267SOL    HW2  801   1.226   0.003   2.283  1.1140  1.0699 -2.7422
  268SOL     OW  802   0.690   1.141   1.091  0.5935  0.4173  0.0374
  268SOL    HW1  803   0.676   1.179   1.182 -1.4281  0.5558 -2.6017
  268SOL    HW2  804   0.626   1.196   1.030 -0.2260 -1.9983 -1.2990
  269SOL     OW  805   2.382   2.536   1.557  0.1567 -0.3574  0.1624
  269SOL    HW1  806   2.458   2.467   1.555 -2.3706 -0.2553 -1.1341
  269SOL    HW2  807   2.348   2.546   1.653 -0.2683  0.6830 -0.5711
  270SOL     OW  808   0.311   2.820   2.051  0.2170  0.5404 -0.2505
  270SOL    HW1  809   0.314   2.811   1.949  0.1781  2.2967  3.6407
  270SOL    HW2  810   0.269   2.735   2.094 -0.5215  0.6161  1.7954
  271SOL     OW  811   0.377   1.375   1.158 -0.2909 -0.0365 -0.0452
  271SOL    HW1  812   0.372   1.409   1.058 -3.2609 -0.9465 -1.5113
  271SOL    HW2  813   0.303   1.423   1.210 -1.2093 -1.3943 -0.0747
  272SOL     OW  814   1.975   2.808   1.905  0.7408  0.1795  0.3507
  272SOL    HW1  815   1.907   2.770   1.839  2.2810 -1.6770  0.7913
  272SOL    HW2  816   2.048   2.868   1.855  1.8831  2.0357  3.0052
  273SOL     OW  817   1.413   1.474   2.877 -0.2534 -0.2798 -0.6541
  273SOL    HW1  818   1.466   1.400   2.923 -0.5178  1.7041  3.1465
  273SOL    HW2  819   1.322   1.483   2.927  1.7985  0.1056  1.4201
  274SOL     OW  820   1.080   0.462   2.139  0.1688 -0.0164 -0.2467
  274SOL    HW1  821   1.153   0.407   2.089  0.6699 -0.9003 -1.3389
  274SOL    HW2  822   1.113   0.492   2.229 -0.2888  0.6317 -0.5845
  275SOL     OW  823   0.673   2.098   1.880 -0.0728 -0.7090 -0.2747
  275SOL    HW1  824   0.685   2.199   1.905  0.3008 -2.6361  0.9044
  275SOL    HW2  825   0.585   2.054   1.911  1.4092  1.0446  0.4035
  276SOL     OW  826   2.103   0.916   2.725  0.3059  0.0876  0.2188
  276SOL    HW1  827   2.032   0.938   2.653 -1.1785  0.0422 -1.0337
  276SOL    HW2  828   2.105   0.818   2.756 -0.0664 -0.4634  2.3004
  277SOL     OW  829   3.065   0.870   0.209 -0.3325 -0.9199  0.6459
  277SOL    HW1  830   3.121   0.892   0.125 -0.1415  0.5331  0.9447
  277SOL    HW2  831   3.109   0.851   0.298  1.9093  1.5172  0.6265
  278SOL     OW  832   0.279   0.283   2.859 -0.1542 -0.8703  0.6729
  278SOL    HW1  833   0.375   0.254   2.875 -2.6332 -1.4792  1.0091
  278SOL    HW2  834   0.263   0.383   2.894  1.5535  0.8811 -2.4619
  279SOL     OW  835   0.115   0.037   0.909 -0.4452  0.2917 -0.3455
  279SOL    HW1  836   0.145   0.050   1.012 -1.4708  1.0688  0.6385
  279SOL    HW2  837   0.195   0.022   0.844  2.5767  1.6199 -0.8704
  280SOL     OW  838   1.630   2.991   2.493 -0.3025 -0.2107 -0.4824
  280SOL    HW1  839   1.701   3.011   2.567  1.2442 -1.0467  1.1754
  280SOL    HW2  840   1.544   3.038   2.513 -1.0806 -0.0845 -2.8250
  281SOL     OW  841   0.643   1.025   2.346  0.1117 -0.7974 -0.2520
  281SOL    HW1  842   0.585   0.980   2.274  0.3542  1.1650  0.1402
  281SOL    HW2  843   0.663   0.960   2.424 -4.6841  0.0181  0.9155
  282SOL     OW  844   1.657   2.527   0.563 -0.1594  0.6231 -0.3459
  282SOL    HW1  845   1.628   2.440   0.514 -1.9852  0.3412  0.1493
  282SOL    HW2  846   1.629   2.616   0.520 -0.3908 -0.7591  0.4815
  283SOL     OW  847   1.164   0.873   0.719  0.1472  0.0941 -0.3991
  283SOL    HW1  848   1.237   0.832   0.775  0.7301 -0.1898 -1.1533
  283SOL    HW2  849   1.086   0.909   0.781 -0.9663 -0.8613  1.2717
  284SOL     OW  850   2.201   2.832   2.402 -0.2631  0.0046 -0.4041
  284SOL    HW1  851   2.232   2.839   2.503 -2.3185 -0.8348  0.9959
  284SOL    HW2  852   2.213   2.926   2.361 -1.6105  0.2054 -0.8922
  285SOL     OW  853   1.346   3.056   2.551 -0.4873 -0.0040  0.0454
  285SOL    HW1  854   1.354   3.042   2.451 -0.2554  1.0702 -0.6374
  285SOL    HW2  855   1.264   3.113   2.584 -0.6323  1.8296 -0.1725
  286SOL     OW  856   0.426   0.415   0.632 -0.3653 -0.2177  0.1125
  286SOL    HW1  857   0.417   0.362   0.727 -1.8142 -0.5176  4.4071
  286SOL    HW2  858   0.380   0.359   0.552  1.1711 -1.2704  2.2972
  287SOL     OW  859   0.097   1.312   2.549  0.6265  0.2369  0.1683
  287SOL    HW1  860   0.051   1.232   2.599 -1.9055 -1.7582  0.5964
  287SOL    HW2  861   0.043   1.406   2.560  0.3002  0.1839  3.3010
  288SOL     OW  862   1.565   2.600   1.478  0.0681  0.2955  0.0007
  288SOL    HW1  863   1.666   2.629   1.491  0.3717  3.3829  0.2592
  288SOL    HW2  864   1.532   2.601   1.381 -0.2905  1.3847 -2.1440
  289SOL     OW  865   0.627   2.712   0.858 -0.4057 -0.1870  0.5290
  289SOL    HW1  866   0.649   2.784   0.785 -0.7186 -0.4502 -0.3745
  289SOL    HW2  867   0.653   2.751   0.950 -0.4538 -0.0285 -1.8665
  290SOL     OW  868   3.017   1.283   1.666 -0.4238  0.5281 -0.1430
  290SOL    HW1  869   2.946   1.300   1.734  1.4639  2.7597 -3.1523
  290SOL    HW2  870   3.113   1.291   1.707  2.0669  0.9133 -0.8584
  291SOL     OW  871   1.987   0.049   0.135  0.4863  0.5407 -0.4764
  291SOL    HW1  872   2.009   0.026   0.234  1.1918 -0.8650  3.4454
  291SOL    HW2  873   2.055   0.109   0.083  2.6680  0.4154 -2.2275
  292SOL     OW  874   2.922   1.154   3.072  0.0742  0.2519  0.0106
  292SOL    HW1  875   2.860   1.215   3.015  0.1078 -1.8155  2.5354
  292SOL    HW2  876   3.023   1.151   3.043 -2.5847 -1.3594  0.6798
  293SOL     OW  877   0.554   2.111   0.183 -0.2142 -0.4560  0.1122
  293SOL    HW1  878   0.530   2.164   0.272  0.4224 -2.2146 -0.9942
  293SOL    HW2  879   0.643   2.054   0.199  0.6844  1.3932 -0.5025
  294SOL     OW  880   1.594   2.154   1.821 -0.4400  0.3479  0.3608
  294SOL    HW1  881   1.668   2.177   1.892 -0.3637  0.3507  1.0629
  294SOL    HW2  882   1.634   2.160   1.723 -1.8760  0.0120  0.9296
  295SOL     OW  883   0.966   1.175   0.417 -0.2861  0.1459  0.1730
  295SOL    HW1  884   1.049   1.149   0.468 -0.1796 -2.1477 -0.3426
  295SOL    HW2  885   0.892   1.115   0.449 -1.3126 -1.1423  0.5529
  296SOL     OW  886   1.286   2.102   2.529  0.3316  0.3630 -0.0854
  296SOL    HW1  887   1.228   2.171   2.478 -2.3289 -0.2345  1.1213
  296SOL    HW2  888   1.287   2.016   2.479  0.0223  3.8216  0.0259
  297SOL     OW  889   1.488   0.691   1.407 -0.6746 -0.0180 -0.7035
  297SOL    HW1  890   1.580   0.662   1.374 -0.3597 -0.0147  1.2626
  297SOL    HW2  891   1.491   0.777   1.467 -0.3484  1.4548  0.1660
  298SOL     OW  892   0.584   1.384   2.822  0.7617 -0.3453 -0.2157
  298SOL    HW1  893   0.597   1.290   2.863  0.6742  1.1173 -1.6269
  298SOL    HW2  894   0.665   1.419   2.764 -2.1467 -0.3852 -1.3835
  299SOL     OW  895   0.363   0.394   1.504 -0.3566 -0.1375  1.0185
  299SOL    HW1  896   0.358   0.458   1.422  0.1837  1.6706  1.2276
  299SOL    HW2  897   0.458   0.353   1.517  0.5468  0.3288  0.6969
  300SOL     OW  898   1.229   1.828   2.860 -0.2866  1.2468  0.1111
  300SOL    HW1  899   1.227   1.761   2.782 -2.8849 -1.3453 -0.1879
  300SOL    HW2  900   1.243   1.790   2.957 -0.1643 -2.7179 -0.3890
  301SOL     OW  901   0.396   0.223   0.420 -0.3698 -0.6530 -0.2674
  301SOL    HW1  902   0.297   0.218   0.388  0.6966 -1.5602  1.0408
  301SOL    HW2  903   0.468   0.180   0.363 -2.1363 -1.1131 -0.5046
  302SOL     OW  904   1.146   2.317   2.398 -0.9088  0.0952 -0.2290
  302SOL    HW1  905   1.079   2.377   2.448 -0.8639  2.0364  1.4540
  302SOL    HW2  906   1.099   2.255   2.327  0.9178 -0.3074 -0.3100
  303SOL     OW  907   0.935   2.401   0.759  0.0005 -0.3485 -0.1365
  303SOL    HW1  908   0.980   2.479   0.705 -1.8840  0.9363 -2.4437
  303SOL    HW2  909   0.910   2.430   0.855  1.1247  1.7968  0.4451
  304SOL     OW  910   0.066   1.986   0.650  0.2017  0.2815  0.2674
  304SOL    HW1  911   0.123   1.958   0.566  1.5984 -2.7252 -0.4131
  304SOL    HW2  912   0.002   2.067   0.645  0.6647 -0.6869  0.4148
  305SOL     OW  913   1.623   0.861   0.673  0.0238 -0.7896 -0.1143
  305SOL    HW1  914   1.548   0.875   0.601  1.2899 -1.5496 -0.5146
  305SOL    HW2  915   1.710   0.814   0.637 -2.7297 -0.2375 -2.7806
  306SOL     OW  916   0.446   1.960   1.946 -0.3805  0.1594 -0.2148
  306SOL    HW1  917   0.459   1.868   1.895 -0.3141  1.0439 -2.0289
  306SOL    HW2  918   0.475   1.949   2.043  1.0342  1.2731 -1.9890
  307SOL     OW  919   0.021   0.871   2.545 -0.0186  0.1306 -0.3545
  307SOL    HW1  920   0.021   0.970   2.582 -1.6366 -0.3396 -0.2459
  307SOL    HW2  921  -0.050   0.817   2.599 -2.5231  0.5221  0.0652
  308SOL     OW  922   1.578   2.724   2.777 -0.2956 -0.0661  0.6800
  308SOL    HW1  923   1.572   2.665   2.690 -0.7986 -0.6204 -1.8784
  308SOL    HW2  924   1.544   2.674   2.860  1.1937 -0.1511 -1.7580
  309SOL     OW  925   1.232   0.039   1.784  0.0702  0.3322 -0.0600
  309SOL    HW1  926   1.323   0.033   1.825 -0.3465 -3.9402  0.8070
  309SOL    HW2  927   1.217   0.085   1.691 -1.4333 -0.1997 -2.1888
  310SOL     OW  928   1.447   2.629   0.760  0.1136  0.0861  0.0224
  310SOL    HW1  929   1.399   2.713   0.801 -0.2504  1.1000 -1.8040
  310SOL    HW2  930   1.531   2.651   0.703  0.3770 -2.1953  0.3670
  311SOL     OW  931   1.212   1.031   1.456 -0.1134  0.0680 -0.2500
  311SOL    HW1  932   1.279   0.993   1.387  2.8619 -0.4311 -2.6021
  311SOL    HW2  933   1.235   1.135   1.464 -1.0008  0.4772 -0.4150
  312SOL     OW  934   1.645   0.646   1.041 -0.0739 -0.3553  0.1078
  312SOL    HW1  935   1.626   0.746   1.059 -3.9510 -1.3746 -0.9919
  312SOL    HW2  936   1.569   0.605   0.987 -1.4577  0.3058 -0.4743
  313SOL     OW  937   1.598   1.465   0.490 -0.5129  0.2850 -0.3803
  313SOL    HW1  938   1.499   1.433   0.475 -2.0453  0.3232  1.4750
  313SOL    HW2  939   1.672   1.394   0.481 -0.6604 -0.2683 -1.5590
  314SOL     OW  940   2.965   0.091   0.008  0.2415 -0.3339 -0.0126
  314SOL    HW1  941   2.985   0.097   0.111  0.3844  0.4834  1.5767
  314SOL    HW2  942   2.904   0.011  -0.021 -0.6318  0.3906 -2.8240
  315SOL     OW  943   1.298   0.268   2.757  0.2171  0.1445  0.4213
  315SOL    HW1  944   1.254   0.205   2.686 -0.4937  1.8244  3.5326
  315SOL    HW2  945   1.322   0.224   2.849 -2.9866  2.5417 -2.0791
  316SOL     OW  946   1.655   2.076   0.935  0.2158  0.2719  0.2019
  316SOL    HW1  947   1.632   2.123   1.017  0.5739 -1.2859 -3.2794
  316SOL    HW2  948   1.713   2.132   0.867  0.9223 -0.7664  0.0764
  317SOL     OW  949   1.172   0.675   2.802 -0.5601 -0.4929 -0.0289
  317SOL    HW1  950   1.118   0.745   2.861 -3.6565  2.3331 -1.0066
  317SOL    HW2  951   1.117   0.603   2.749  2.8195 -0.0916  0.5944
  318SOL     OW  952   1.385   3.076   2.283 -0.6924 -0.5890 -0.4146
  318SOL    HW1  953   1.412   3.177   2.270  0.8921 -0.8996 -0.7547
  318SOL    HW2  954   1.430   3.019   2.212  1.3058 -0.7049  0.5777
  319SOL     OW  955   0.664   2.392   2.929  0.3618 -0.0472  0.1630
  319SOL    HW1  956   0.596   2.372   3.008 -3.2195 -0.4874  0.8497
  319SOL    HW2  957   0.745   2.332   2.911  1.3007 -0.1624  1.8116
  320SOL     OW  958   1.582   2.264   0.462  0.3324  0.6248  0.3836
  320SOL    HW1  959   1.676   2.220   0.447 -0.1614  1.4867 -2.5475
  320SOL    HW2  960   1.513   2.201   0.512 -1.2263 -0.0763  0.2731
  321SOL     OW  961   1.600   2.771   0.498 -0.1742  0.0551  0.2600
  321SOL    HW1  962   1.521   2.806   0.439 -1.9817  0.4232  3.1926
  321SOL    HW2  963   1.680   2.835   0.492 -1.6611 -2.3288  0.3051
  322SOL     OW  964   2.637   1.164   2.297 -0.0629  0.5994  0.1139
  322SOL    HW1  965   2.704   1.206   2.366  0.5457 -0.7224 -1.7777
  322SOL    HW2  966   2.599   1.071   2.320 -0.5756 -0.5401 -2.0665
  323SOL     OW  967   0.989   2.768   0.851 -0.3834 -0.0448 -0.2531
  323SOL    HW1  968   1.046   2.726   0.773  2.4171  1.9362 -2.2323
  323SOL    HW2  969   0.979   2.869   0.857 -3.0634 -0.6746 -0.5468
  324SOL     OW  970   0.097   2.521   2.406 -0.0547  0.6578  0.0770
  324SOL    HW1  971   0.047   2.431   2.401  1.5737  1.9359  0.5989
  324SOL    HW2  972   0.069   2.583   2.487 -0.8292 -0.2879  1.2121
  325SOL     OW  973   1.198   3.038   0.492 -0.0388  0.1224  0.1740
  325SOL    HW1  974   1.218   3.080   0.395 -1.0331 -0.3002  0.6889
  325SOL    HW2  975   1.219   3.112   0.561 -0.8308 -1.4270 -1.0963
  326SOL     OW  976   2.316   0.828   0.089  0.0116  1.0568  0.3576
  326SOL    HW1  977   2.228   0.835   0.034  2.1151 -0.7770  0.6405
  326SOL    HW2  978   2.328   0.730   0.123  0.4933 -1.4304 -1.6832
  327SOL     OW  979   2.706   0.421   0.547 -0.2403  0.6071 -0.7838
  327SOL    HW1  980   2.740   0.381   0.457  0.1455  1.3334 -0.9166
  327SOL    HW2  981   2.619   0.372   0.578 -0.0891 -1.5149  0.7693
  328SOL     OW  982   2.560   0.613   0.363  0.7361 -0.3318 -0.2739
  328SOL    HW1  983   2.473   0.571   0.405 -1.4684 -0.5221  1.2649
  328SOL    HW2  984   2.645   0.610   0.424 -0.6148 -1.0445 -0.5053
  329SOL     OW  985   3.013   2.943   2.130  0.7372 -0.1236 -0.4504
  329SOL    HW1  986   3.058   2.884   2.206 -0.4801 -1.8794 -1.1216
  329SOL    HW2  987   3.051   3.047   2.122 -0.0533  1.3035  1.8223
  330SOL     OW  988   0.488   0.197   1.901  0.3976  0.4393 -0.6972
  330SOL    HW1  989   0.516   0.292   1.867  1.5265 -0.5878  1.1218
  330SOL    HW2  990   0.553   0.158   1.972  0.2503 -1.1039  1.6969
  331SOL     OW  991   2.886   1.910   1.067 -0.2510 -0.0971 -0.0883
  331SOL    HW1  992   2.926   2.002   1.050 -1.2441 -0.1644 -1.8616
  331SOL    HW2  993   2.850   1.894   1.168 -1.6460 -0.2448 -0.0976
  332SOL     OW  994   0.413   1.014   0.016 -0.2648 -0.5511  0.6973
  332SOL    HW1  995   0.354   0.945  -0.038 -1.3361  0.3778  0.4306
  332SOL    HW2  996   0.356   1.076   0.076  0.9563 -0.4808 -0.6325
  333SOL     OW  997   2.874   1.018   0.309  0.1395 -0.4729 -0.1168
  333SOL    HW1  998   2.920   1.104   0.345 -2.2589  0.8325 -0.5031
  333SOL    HW2  999   2.937   0.958   0.258  0.4012  4.1966 -0.5782
  334SOL     OW 1000   1.635   1.153   1.899  0.1295 -0.3930  0.0629
  334SOL    HW1 1001   1.713   1.115   1.844 -0.0742  0.7637 -0.6373
  334SOL    HW2 1002   1.662   1.244   1.945  1.4891  0.1991 -0.1185
  335SOL     OW 1003   1.893   2.813   2.632 -0.3219  0.3143  0.5099
  335SOL    HW1 1004   1.992   2.827   2.622  1.7414  0.2371  1.9027
  335SOL    HW2 1005   1.837   2.897   2.654  1.0118 -0.9641 -2.4155
  336SOL     OW 1006   0.219   0.066   2.711 -0.0039  0.8633  0.2508
  336SOL    HW1 1007   0.307   0.018   2.722 -0.6753  0.3562 -1.2316
  336SOL    HW2 1008   0.217   0.157   2.758  0.5581  1.2817 -2.5591
  337SOL     OW 1009   1.022   2.805   2.818  0.0851  0.0970 -0.0989
  337SOL    HW1 1010   0.986   2.808   2.917 -0.8774 -0.1233  0.5682
  337SOL    HW2 1011   1.124   2.772   2.809  0.0666  3.0712 -0.4616
  338SOL     OW 1012   0.017   1.027   0.667  0.5461 -0.2895 -0.6688
  338SOL    HW1 1013  -0.084   1.023   0.684  1.5711 -1.0512 -3.3317
  338SOL    HW2 1014   0.056   1.113   0.634  3.6539  1.0244  4.2208
  339SOL     OW 1015   1.707   1.376   2.012  0.2574  0.1317 -0.1909
  339SOL    HW1 1016   1.613   1.386   2.052  0.6477  0.3551 -1.0590
  339SOL    HW2 1017   1.761   1.466   2.019  2.0275  1.9029  2.0092
  340SOL     OW 1018   2.268   0.791   1.274 -0.7570  0.2883  0.2978
  340SOL    HW1 1019   2.171   0.807   1.237 -0.4567  0.1754 -1.4489
  340SOL    HW2 1020   2.328   0.739   1.207 -3.2490 -1.2921 -2.9934
  341SOL     OW 1021   1.826   2.178   0.446  0.6031 -0.6297  0.1566
  341SOL    HW1 1022   1.833   2.182   0.339  1.2323  0.8359 -0.4837
  341SOL    HW2 1023   1.909   2.226   0.491  0.8209  1.5129  0.4017
  342SOL     OW 1024   2.240   2.157   2.763  0.2362  0.0440 -0.7337
  342SOL    HW1 1025   2.292   2.085   2.823 -1.3736 -0.0264 -1.4775
  342SOL    HW2 1026   2.142   2.134   2.754  1.2654 -0.0296 -0.4291
  343SOL     OW 1027   0.318   0.903   2.842  0.0808  0.0028 -0.1389
  343SOL    HW1 1028   0.304   0.941   2.747  1.2604 -1.4893  0.0620
  343SOL    HW2 1029   0.419   0.888   2.853  1.1486  3.5590  1.7267
  344SOL     OW 1030   1.919   1.470   0.281 -0.5160 -0.7276  0.0725
  344SOL    HW1 1031   1.864   1.388   0.244 -1.8462 -0.0679 -2.1016
  344SOL    HW2 1032   1.906   1.553   0.214 -3.0320 -0.3642 -3.0163
  345SOL     OW 1033   1.475   2.222   2.890  0.6587  0.3359 -0.9773
  345SOL    HW1 1034   1.398   2.179   2.832  1.3760 -1.1988 -3.5139
  345SOL    HW2 1035   1.566   2.180   2.864  0.4300  1.7920  1.6720
  346SOL     OW 1036   2.346   0.872   1.522  0.3019  0.0319 -0.5990
  346SOL    HW1 1037   2.370   0.971   1.537  0.7014 -0.6665  0.6810
  346SOL    HW2 1038   2.304   0.850   1.427 -0.9952 -1.9352 -0.6983
  347SOL     OW 1039   0.698   2.844   1.560  0.0811  0.4768 -0.1116
  347SOL    HW1 1040   0.678   2.770   1.631  1.9195  1.1117  0.8833
  347SOL    HW2 1041   0.615   2.903   1.536  0.3567  1.6033  0.7304
  348SOL     OW 1042   0.129   0.708   2.832  0.2380 -0.0103  0.3346
  348SOL    HW1 1043   0.053   0.722   2.767  0.7633 -2.2646  1.0620
  348SOL    HW2 1044   0.202   0.779   2.831 -0.0199  0.4148  0.8757
  349SOL     OW 1045   1.937   0.472   2.715 -0.2995 -0.3256  0.2300
  349SOL    HW1 1046   1.925   0.563   2.665 -0.3559 -0.4121 -2.5034
  349SOL    HW2 1047   1.902   0.476   2.813  0.6833  1.8514  0.1332
  350SOL     OW 1048   1.678   0.363   0.344 -0.3931 -0.0297  0.4605
  350SOL    HW1 1049   1.718   0.392   0.438 -2.0655  1.6146  0.9851
  350SOL    HW2 1050   1.628   0.446   0.304 -2.2178  0.4581  1.4850
  351SOL     OW 1051   0.879   0.885   2.122  0.0620  0.2099  0.4321
  351SOL    HW1 1052   0.880   0.984   2.091 -2.8636  0.6218 -0.0372
  351SOL    HW2 1053   0.853   0.823   2.043 -1.1396  0.4351  1.2744
  352SOL     OW 1054   1.948   1.373   0.537  0.7201 -0.5304 -0.6589
  352SOL    HW1 1055   1.932   1.413   0.443  2.1652  0.5707  0.6850
  352SOL    HW2 1056   2.022   1.428   0.590  0.3714 -0.6287  1.6436
  353SOL     OW 1057   2.119   2.798   1.195 -0.4470  0.0286 -0.2478
  353SOL    HW1 1058   2.206   2.765   1.149  1.0529  0.8798  0.5064
  353SOL    HW2 1059   2.041   2.755   1.147  2.3820 -0.4895  0.3734
  354SOL     OW 1060   0.284   1.359   2.937 -0.5558 -0.6381 -0.1168
  354SOL    HW1 1061   0.228   1.426   2.883  0.9132 -0.4195 -1.2852
  354SOL    HW2 1062   0.383   1.357   2.906 -1.0898  3.0081 -0.7031
  355SOL     OW 1063   0.444   1.467   0.466  0.0675  0.3029  0.2584
  355SOL    HW1 1064   0.498   1.559   0.476  1.5459  3.7449 -1.5372
  355SOL    HW2 1065   0.506   1.384   0.440  1.3083 -1.7883  0.0344
  356SOL     OW 1066   0.767   0.385   2.081 -0.2486  0.5728  0.1450
  356SOL    HW1 1067   0.847   0.452   2.089  1.2888 -0.5553  0.1814
  356SOL    HW2 1068   0.793   0.307   2.016  2.1070  0.9195 -2.6444
  357SOL     OW 1069   1.093   1.312   0.183 -0.5472 -0.8051 -0.6308
  357SOL    HW1 1070   1.055   1.305   0.085 -3.6414  1.4297 -0.5140
  357SOL    HW2 1071   1.040   1.257   0.252 -2.1712  0.4843  0.1203
  358SOL     OW 1072   1.592   1.654   0.273 -0.0736  0.1192 -0.1590
  358SOL    HW1 1073   1.609   1.567   0.327 -1.5273  1.3511  2.8017
  358SOL    HW2 1074   1.535   1.724   0.326 -1.5066 -1.7110  0.1373
  359SOL     OW 1075   1.567   2.704   0.119  0.0468 -0.1113  0.0100
  359SOL    HW1 1076   1.594   2.616   0.064  0.0256 -0.9515 -0.8557
  359SOL    HW2 1077   1.491   2.688   0.186  0.7571 -0.1419 -1.7131
  360SOL     OW 1078   0.825   0.573   0.442  0.3112 -0.1454  0.1653
  360SOL    HW1 1079   0.745   0.589   0.513 -2.1219  2.5903  0.1853
  360SOL    HW2 1080   0.860   0.479   0.441 -0.4690 -0.4415 -1.1983
  361SOL     OW 1081   1.285   1.374   0.638 -0.2291  0.6369 -0.0604
  361SOL    HW1 1082   1.336   1.399   0.725  1.7228 -2.0347 -0.1181
  361SOL    HW2 1083   1.183   1.396   0.650 -1.6904 -0.5876  1.7733
  362SOL     OW 1084   1.367   1.739   0.808  0.3335  0.1668  0.5387
  362SOL    HW1 1085   1.401   1.722   0.902 -0.6509  1.4079  1.3333
  362SOL    HW2 1086   1.428   1.798   0.751 -2.9227  1.5199 -0.6196
  363SOL     OW 1087   1.134   1.271   2.054  0.0391  0.3774  0.6717
  363SOL    HW1 1088   1.104   1.365   2.088 -0.7435 -0.3411  3.2953
  363SOL    HW2 1089   1.155   1.270   1.952 -1.9533 -0.2186  2.1709
  364SOL     OW 1090   0.566   2.391   1.965  0.2342  0.7933 -0.2985
  364SOL    HW1 1091   0.465   2.408   1.987 -0.8605  2.1665 -1.3117
  364SOL    HW2 1092   0.607   2.437   1.880  2.9127  2.3543 -2.8714
  365SOL     OW 1093   1.131   1.742   1.433 -0.2534 -0.0830 -0.0329
  365SOL    HW1 1094   1.047   1.784   1.478 -2.3054  2.8314  2.4736
  365SOL    HW2 1095   1.124   1.642   1.433  1.2069 -0.5970  2.4371
  366SOL     OW 1096   2.833   2.068   0.484 -0.0884  0.1468  0.4589
  366SOL    HW1 1097   2.777   1.999   0.537  0.9779  2.5226 -1.7275
  366SOL    HW2 1098   2.909   2.018   0.428  2.1560 -1.8180  0.1493
  367SOL     OW 1099   0.840   1.169   0.079 -0.7330  0.0601  0.0233
  367SOL    HW1 1100   0.871   1.093   0.138  1.3486  2.8713 -1.0747
  367SOL    HW2 1101   0.874   1.165  -0.019  3.3106 -1.6221  2.2028
  368SOL     OW 1102   1.500   0.494   0.610  0.2792 -0.4543 -0.4314
  368SOL    HW1 1103   1.438   0.558   0.552 -0.2337  1.1273 -0.5125
  368SOL    HW2 1104   1.597   0.494   0.578  0.1943  0.7591  1.0167
  369SOL     OW 1105   0.260   1.666   0.147  1.3648  0.2373  0.2678
  369SOL    HW1 1106   0.252   1.762   0.177 -1.0564  0.5869  2.5974
  369SOL    HW2 1107   0.183   1.605   0.182  2.3599  2.2934 -0.5088
  370SOL     OW 1108   0.457   2.119   0.983  0.2346  0.4772 -0.8367
  370SOL    HW1 1109   0.468   2.222   0.984 -1.4900  0.9237  2.7203
  370SOL    HW2 1110   0.376   2.081   0.928 -0.8057  1.2313  0.3256
  371SOL     OW 1111   2.969   2.149   2.780 -0.6560  0.1887  0.2249
  371SOL    HW1 1112   2.972   2.162   2.881 -1.0815 -0.7612 -1.4308
  371SOL    HW2 1113   3.046   2.207   2.728  0.7649 -3.2096  0.8234
  372SOL     OW 1114   0.851   1.935   1.008 -0.4388 -0.8919 -0.0939
  372SOL    HW1 1115   0.905   2.022   1.032 -0.5781  2.2686  0.4421
  372SOL    HW2 1116   0.893   1.894   0.925 -2.0011 -1.9818  1.0456
  373SOL     OW 1117   1.912   1.949   0.916 -0.1287 -0.3932 -0.1064
  373SOL    HW1 1118   1.974   1.996   0.987 -0.9374 -2.8686  1.6347
  373SOL    HW2 1119   1.815   1.984   0.919 -1.0863 -1.2653  1.3505
  374SOL     OW 1120   1.813   0.441   0.575 -0.2179  0.2314 -0.2401
  374SOL    HW1 1121   1.813   0.434   0.678 -2.0708 -0.2288 -1.4593
  374SOL    HW2 1122   1.907   0.431   0.525  1.9876  0.0050 -1.4847
  375SOL     OW 1123   2.460   2.322   1.182 -0.1176 -0.3302 -0.1357
  375SOL    HW1 1124   2.511   2.277   1.106  1.2210  0.6732  4.3710
  375SOL    HW2 1125   2.482   2.284   1.275 -1.3250  0.2447 -2.5127
  376SOL     OW 1126   3.036   0.670   1.472  0.1812  0.2770 -0.3018
  376SOL    HW1 1127   3.068   0.725   1.551 -2.5881  1.4406 -0.6842
  376SOL    HW2 1128   2.933   0.682   1.457 -0.8267 -2.1360 -0.2154
  377SOL     OW 1129   2.166   2.831   0.307  0.1384  0.4171 -0.4960
  377SOL    HW1 1130   2.104   2.903   0.346  0.4277 -4.3695 -0.1166
  377SOL    HW2 1131   2.262   2.856   0.325 -0.2972 -2.6350  0.3012
  378SOL     OW 1132   1.863   1.819   2.695 -0.7620  0.4812 -0.5790
  378SOL    HW1 1133   1.936   1.749   2.673  0.4740 -1.6895  0.3068
  378SOL    HW2 1134   1.786   1.770   2.739  0.5170 -0.6871  0.1506
  379SOL     OW 1135   0.855   0.134   2.669 -0.6211 -0.4350  0.3429
  379SOL    HW1 1136   0.856   0.030   2.661 -0.6388 -0.2720 -3.2887
  379SOL    HW2 1137   0.801   0.186   2.597 -0.3677  2.0134 -0.3199
  380SOL     OW 1138   1.606   1.150   0.505  0.0303 -0.7919 -0.0722
  380SOL    HW1 1139   1.525   1.089   0.491 -0.2466  2.0743 -0.8222
  380SOL    HW2 1140   1.594   1.207   0.589 -1.3949  1.4948 -3.1542
  381SOL     OW 1141   1.310   1.278   1.483  0.0081 -0.4393  0.7162
  381SOL    HW1 1142   1.345   1.372   1.461 -2.3023 -3.2841  2.0723
  381SOL    HW2 1143   1.376   1.233   1.547 -0.1191  0.5563 -1.4016
  382SOL     OW 1144   1.735   0.784   0.220  0.1592 -0.1525 -0.1181
  382SOL    HW1 1145   1.780   0.779   0.126 -2.3748  0.6577  0.1263
  382SOL    HW2 1146   1.792   0.810   0.302  0.3063  1.3060 -0.0805
  383SOL     OW 1147   2.621   1.015   1.530  0.2000 -0.2661 -0.4047
  383SOL    HW1 1148   2.561   1.000   1.453  0.1246  1.1444 -0.9314
  383SOL    HW2 1149   2.716   0.976   1.513 -2.4938 -0.0972 -1.7870
  384SOL     OW 1150   1.028   2.304   0.140 -0.2153 -0.1462  0.7001
  384SOL    HW1 1151   0.942   2.361   0.133  1.2565 -0.5710  0.5900
  384SOL    HW2 1152   1.024   2.237   0.221 -0.0312  1.5160  1.7224
  385SOL     OW 1153   2.959   2.028   1.695  0.2601  0.3402  0.7799
  385SOL    HW1 1154   3.031   2.107   1.673  2.2181  0.6770  1.1503
  385SOL    HW2 1155   3.011   1.936   1.699 -0.0093  0.5480 -0.6331
  386SOL     OW 1156   0.408   1.071   0.428 -0.3417 -0.9554  0.7556
  386SOL    HW1 1157   0.430   0.968   0.439  2.7496 -0.0024 -0.1616
  386SOL    HW2 1158   0.354   1.098   0.340  1.4221  2.5038  2.8098
  387SOL     OW 1159   1.036   0.336   1.699  0.7508 -0.0411  0.4799
  387SOL    HW1 1160   1.092   0.422   1.669  0.3141  0.8980 -1.3057
  387SOL    HW2 1161   1.019   0.273   1.621  0.4650  0.3599  2.1452
  388SOL     OW 1162   1.254   2.545   1.780 -0.1787  0.3396 -0.1494
  388SOL    HW1 1163   1.270   2.527   1.679  0.3542  2.7325  0.4780
  388SOL    HW2 1164   1.314   2.492   1.845  0.7571 -0.4892 -1.1405
  389SOL     OW 1165   0.230   0.015   1.164 -0.0320  0.4036 -0.1968
  389SOL    HW1 1166   0.197  -0.006   1.262  0.2685 -0.3078  1.9036
  389SOL    HW2 1167   0.283  -0.069   1.125  1.1659 -0.3977 -0.9038
  390SOL     OW 1168   1.055   0.845   1.194  0.4244 -0.4711  0.5238
  390SOL    HW1 1169   1.154   0.816   1.188 -2.5485  1.1556  1.8850
  390SOL    HW2 1170   1.028   0.858   1.295  0.0203 -0.2651  0.6810
  391SOL     OW 1171   2.103   1.149   1.120 -0.4960  0.5663  0.6789
  391SOL    HW1 1172   2.100   1.051   1.151  1.0866  1.2414  1.6499
  391SOL    HW2 1173   2.150   1.153   1.025  1.9514 -0.3353 -1.6409
  392SOL     OW 1174   0.929   2.725   3.064 -0.1578 -0.0149 -0.0231
  392SOL    HW1 1175   0.840   2.715   3.120  1.6940 -1.0701 -0.3542
  392SOL    HW2 1176   1.006   2.783   3.108  1.1492  1.6401  1.4922
  393SOL     OW 1177   0.333   0.604   1.981  0.1001  0.7844 -0.5855
  393SOL    HW1 1178   0.252   0.540   1.965  2.1659  1.7647  2.0212
  393SOL    HW2 1179   0.425   0.560   1.961 -0.1832  1.2167 -1.9536
  394SOL     OW 1180   2.816   1.841   2.753 -0.5723 -0.2500 -1.1002
  394SOL    HW1 1181   2.867   1.837   2.664  0.6972  0.5896  0.7274
  394SOL    HW2 1182   2.764   1.929   2.781  0.6787 -0.8967  3.0659
  395SOL     OW 1183   1.534   1.949   0.715 -0.2200  0.2854 -0.1297
  395SOL    HW1 1184   1.604   1.883   0.684 -0.7766  2.7434 -2.1519
  395SOL    HW2 1185   1.565   1.985   0.804 -0.2445 -0.2662 -3.1314
  396SOL     OW 1186   2.740   1.941   1.310  0.1115 -0.0864  0.2088
  396SOL    HW1 1187   2.774   1.977   1.401  0.8300 -0.7701  0.8039
  396SOL    HW2 1188   2.642   1.903   1.310 -2.4875 -0.7064 -0.2474
  397SOL     OW 1189   0.950   2.159   0.635  0.0295  0.0130 -0.0122
  397SOL    HW1 1190   0.868   2.150   0.578  0.8960  1.6411  0.8222
  397SOL    HW2 1191   0.949   2.248   0.689 -1.2457  1.0084 -1.1805
  398SOL     OW 1192   2.231   3.065   1.175  0.6097  0.4534 -0.5419
  398SOL    HW1 1193   2.184   2.970   1.184  1.0099 -0.7737 -1.4138
  398SOL    HW2 1194   2.170   3.133   1.131  2.3476 -3.5857  0.7506
  399SOL     OW 1195   2.884   2.606   2.799  0.0247  0.1408  0.0427
  399SOL    HW1 1196   2.900   2.537   2.725  1.1627  1.0914  0.1422
  399SOL    HW2 1197   2.820   2.566   2.869  0.4070 -0.8385 -2.2567
  400SOL     OW 1198   0.813   1.588   1.291 -0.2229 -0.1285 -0.1414
  400SOL    HW1 1199   0.789   1.653   1.367  0.4584  0.3584 -0.7579
  400SOL    HW2 1200   0.785   1.632   1.199  0.9341  3.0559 -0.5887
  401SOL     OW 1201   1.869   0.140   1.273  0.2051  0.4292 -0.5975
  401SOL    HW1 1202   1.922   0.190   1.346  2.3474 -0.1300 -0.1053
  401SOL    HW2 1203   1.771   0.127   1.295  1.4390 -1.8112 -0.1200
  402SOL     OW 1204   1.394   0.142   3.016 -0.2445 -0.3934 -0.2977
  402SOL    HW1 1205   1.499   0.168   2.996  0.8503 -1.4017 -1.4281
  402SOL    HW2 1206   1.363   0.174   3.114 -1.2941 -0.2592 -0.6592
  403SOL     OW 1207   2.260   1.847   0.931  0.0149 -0.2113 -0.3504
  403SOL    HW1 1208   2.355   1.849   0.970 -0.4814 -0.8184  1.5690
  403SOL    HW2 1209   2.194   1.915   0.978  0.9193  2.0630 -0.6852
  404SOL     OW 1210   0.222   2.481   2.779 -0.2045 -0.2321 -0.2397
  404SOL    HW1 1211   0.324   2.462   2.789  0.1199  0.4197 -0.4832
  404SOL    HW2 1212   0.206   2.584   2.784  1.2968  2.3085  0.5072
  405SOL     OW 1213   0.187   2.565   0.560  0.1600  0.2355 -0.2872
  405SOL    HW1 1214   0.194   2.462   0.554  0.8496 -0.4949 -0.0714
  405SOL    HW2 1215   0.275   2.611   0.592  0.0463  0.4102  2.4346
  406SOL     OW 1216   0.039   1.642   2.989 -0.2467 -0.0453 -0.4355
  406SOL    HW1 1217   0.079   1.625   2.893 -0.8143  0.0282 -0.8943
  406SOL    HW2 1218   0.062   1.570   3.059  2.4845 -1.1161  0.2871
  407SOL     OW 1219   1.512   0.899   0.937 -0.0373  0.7342 -0.2988
  407SOL    HW1 1220   1.550   0.863   0.847  0.9066 -1.4338  2.5409
  407SOL    HW2 1221   1.447   0.979   0.924  3.5221  2.0690  1.6996
  408SOL     OW 1222   1.456   2.328   0.909  0.0467  0.0918 -0.3494
  408SOL    HW1 1223   1.518   2.276   0.842 -0.1187 -0.9468  1.6586
  408SOL    HW2 1224   1.509   2.398   0.966  0.6868 -0.2524  2.4372
  409SOL     OW 1225   0.610   0.837   0.706 -0.2006 -0.4768 -0.0226
  409SOL    HW1 1226   0.531   0.851   0.643  1.3751  0.8380  0.7257
  409SOL    HW2 1227   0.646   0.742   0.703  1.1541  2.2374  0.1968
  410SOL     OW 1228   1.349   1.913   1.476 -0.4103  0.3083 -0.3131
  410SOL    HW1 1229   1.332   2.015   1.488  1.3233 -2.0145  4.8994
  410SOL    HW2 1230   1.273   1.846   1.494  2.2285 -2.8952  2.3504
  411SOL     OW 1231   2.367   1.864   0.058 -0.0672 -0.1330 -0.3395
  411SOL    HW1 1232   2.271   1.881   0.017 -3.7805 -1.1944  0.4644
  411SOL    HW2 1233   2.439   1.929   0.021  0.4150  0.7588 -1.7299
  412SOL     OW 1234   1.642   2.456   2.242 -0.2054 -0.1456 -0.1908
  412SOL    HW1 1235   1.663   2.555   2.256 -1.0596 -0.6714 -0.0933
  412SOL    HW2 1236   1.548   2.423   2.272 -1.9514 -2.1106  0.9523
  413SOL     OW 1237   3.086   0.238   2.908 -0.0276  0.0072  0.7594
  413SOL    HW1 1238   3.031   0.211   2.988 -0.3518  1.3106 -1.6170
  413SOL    HW2 1239   3.185   0.252   2.924  0.9493 -0.6583 -1.4144
  414SOL     OW 1240   1.715   1.361   1.411 -0.7156 -0.4272 -0.1177
  414SOL    HW1 1241   1.631   1.419   1.436 -0.2605  0.7345 -1.2300
  414SOL    HW2 1242   1.710   1.333   1.312  1.4478 -0.5566  0.6966
  415SOL     OW 1243   0.236   2.270   0.687 -0.0915 -0.3389  0.2335
  415SOL    HW1 1244   0.236   2.225   0.783 -1.5411 -0.3278  0.7384
  415SOL    HW2 1245   0.152   2.256   0.625 -1.5934  1.0002  0.8714
  416SOL     OW 1246   0.314   1.087   1.085  0.5559  0.5137  0.1950
  416SOL    HW1 1247   0.331   1.056   0.985 -1.7038 -0.4347  0.1854
  416SOL    HW2 1248   0.339   1.184   1.102  1.8546 -0.7937  3.3800
  417SOL     OW 1249   2.201   2.318   1.829 -0.0489  0.1225  0.0393
  417SOL    HW1 1250   2.271   2.244   1.841  4.2458  0.6108  0.5073
  417SOL    HW2 1251   2.112   2.302   1.878  0.0080  1.1271 -0.1337
  418SOL     OW 1252   1.160   0.567   1.348  0.0339 -0.4688  0.0068
  418SOL    HW1 1253   1.076   0.566   1.290 -0.1463  2.4754  0.8402
  418SOL    HW2 1254   1.234   0.513   1.308 -0.5472 -2.1909 -0.5378
  419SOL     OW 1255   0.958   0.385   2.979  0.0307  0.0044 -0.4355
  419SOL    HW1 1256   0.986   0.419   2.884 -0.2561  0.1143  3.1455
  419SOL    HW2 1257   0.913   0.291   2.977  0.8484  0.3496  1.6415
  420SOL     OW 1258   0.206   2.205   0.310 -0.4314  0.1708  0.6397
  420SOL    HW1 1259   0.178   2.183   0.209 -1.5411 -0.1359 -1.2123
  420SOL    HW2 1260   0.123   2.238   0.355 -1.3653 -0.4923 -1.8477
  421SOL     OW 1261   0.290   0.056   0.697 -0.0316 -0.2023 -0.4322
  421SOL    HW1 1262   0.302   0.008   0.607  0.2957 -0.2167  1.1977
  421SOL    HW2 1263   0.356   0.131   0.722  1.6666 -1.0837 -2.6746
  422SOL     OW 1264   0.907   2.553   0.996 -0.3911  0.2408  0.0681
  422SOL    HW1 1265   0.930   2.638   0.947 -0.5034 -2.3233  1.2350
  422SOL    HW2 1266   0.959   2.555   1.085 -0.1420  0.7732 -0.7932
  423SOL     OW 1267   0.058   0.635   1.217  0.0736  0.1359  0.2635
  423SOL    HW1 1268   0.049   0.639   1.319 -0.8123 -2.2671 -2.4744
  423SOL    HW2 1269  -0.035   0.637   1.175  1.8079  1.5749 -1.3358
  424SOL     OW 1270   1.017   2.159   2.213 -0.4976  0.5619 -0.1399
  424SOL    HW1 1271   0.985   2.208   2.128  0.8570 -0.3434  2.1806
  424SOL    HW2 1272   0.938   2.127   2.272 -0.5701 -0.1934 -0.5455
  425SOL     OW 1273   2.083   1.416   1.129  0.2786  0.2200 -0.3842
  425SOL    HW1 1274   2.111   1.317   1.112  0.9464 -3.4376 -3.0357
  425SOL    HW2 1275   2.084   1.477   1.045 -4.0385 -1.0090 -0.9049
  426SOL     OW 1276   1.439   1.550   1.440 -0.0579  0.2667  0.2064
  426SOL    HW1 1277   1.414   1.618   1.362 -1.4278  2.5526  1.4471
  426SOL    HW2 1278   1.473   1.598   1.526 -1.2774  0.4145  1.5100
  427SOL     OW 1279   1.990   2.341   2.037  0.5530  0.6669 -0.2996
  427SOL    HW1 1280   2.009   2.268   2.104  0.2788  1.7738  1.0212
  427SOL    HW2 1281   2.005   2.441   2.072  0.0503  2.5067  2.7503
  428SOL     OW 1282   0.910   0.016   0.066 -0.5807 -0.9161  0.4534
  428SOL    HW1 1283   0.938   0.093   0.133 -0.3814  0.5891  0.7146
  428SOL    HW2 1284   0.977  -0.062   0.054 -0.4647  0.7713  1.2632
  429SOL     OW 1285   1.250   0.061   0.235  0.3360  0.8728 -0.5127
  429SOL    HW1 1286   1.321   0.133   0.203  0.3873 -0.7673  0.4026
  429SOL    HW2 1287   1.243  -0.029   0.181 -1.6685 -2.7181 -0.8246
  430SOL     OW 1288   2.786   1.448   0.269  0.1233 -0.1095 -0.3900
  430SOL    HW1 1289   2.788   1.505   0.185 -0.9791  0.4714  1.2716
  430SOL    HW2 1290   2.780   1.506   0.355  0.5354 -3.5596 -0.8935
  431SOL     OW 1291   2.137   1.594   0.927 -0.2096 -0.2605  0.0117
  431SOL    HW1 1292   2.184   1.688   0.940 -0.0012 -0.2441 -1.7598
  431SOL    HW2 1293   2.052   1.600   0.869  1.6273  0.7926 -0.4317
  432SOL     OW 1294   2.950   2.153   1.291  0.2067  0.3368 -0.4046
  432SOL    HW1 1295   2.867   2.092   1.315 -0.4146  1.1331  1.2684
  432SOL    HW2 1296   2.949   2.246   1.341  0.5678 -0.5824  2.9481
  433SOL     OW 1297   1.835   0.389   0.844 -0.1377  0.3503 -0.0821
  433SOL    HW1 1298   1.748   0.352   0.886 -2.1968  1.3079  0.4403
  433SOL    HW2 1299   1.903   0.428   0.911  1.8973  0.6988 -3.9637
  434SOL     OW 1300   1.458   0.227   0.750  0.4869  0.5172  0.4837
  434SOL    HW1 1301   1.491   0.293   0.676  2.2877  1.3475 -2.0662
  434SOL    HW2 1302   1.527   0.226   0.825  0.1981  0.3853  1.2211
  435SOL     OW 1303   1.433   1.379   2.091 -0.2520 -0.0702  0.6359
  435SOL    HW1 1304   1.386   1.413   2.180  0.7188 -0.5540 -2.2615
  435SOL    HW2 1305   1.405   1.431   2.005 -3.5120 -1.0656  0.6482
  436SOL     OW 1306   1.676   2.716   2.428  0.3786 -0.5391  0.5727
  436SOL    HW1 1307   1.651   2.815   2.453 -1.9315 -0.3761 -0.7857
  436SOL    HW2 1308   1.622   2.637   2.468  3.4623  0.8294  0.5544
  437SOL     OW 1309   1.051   3.029   0.872  0.2698 -0.3134 -0.0798
  437SOL    HW1 1310   1.068   3.111   0.809  0.0864  0.2042 -1.3095
  437SOL    HW2 1311   1.072   3.049   0.975  1.4679  1.3192  2.3536
  438SOL     OW 1312   1.007   2.578   1.257 -0.0052  0.1544 -0.2100
  438SOL    HW1 1313   1.094   2.621   1.296 -0.0851 -0.9116  1.8702
  438SOL    HW2 1314   1.011   2.478   1.272 -2.9460  1.5974  0.1593
  439SOL     OW 1315   0.730   1.703   1.069 -0.1018 -0.1912 -0.2037
  439SOL    HW1 1316   0.781   1.790   1.046  3.1947 -1.5320 -0.0386
  439SOL    HW2 1317   0.630   1.717   1.090 -1.5705 -0.6771  0.1671
  440SOL     OW 1318   0.928   2.314   2.007  0.2045 -0.1687 -0.3590
  440SOL    HW1 1319   0.932   2.408   1.966  2.2663 -0.7215  1.6527
  440SOL    HW2 1320   0.987   2.248   1.949  2.6750  1.4182  0.7211
  441SOL     OW 1321   0.359   2.789   1.301  0.2494 -0.2030 -0.4931
  441SOL    HW1 1322   0.387   2.691   1.301 -1.9489 -1.6469 -0.8550
  441SOL    HW2 1323   0.365   2.840   1.210  1.1575  0.7626 -1.0746
  442SOL     OW 1324   2.225   0.697   2.553  0.1820  0.2498  0.0355
  442SOL    HW1 1325   2.237   0.624   2.481  3.7151  0.8181  0.2182
  442SOL    HW2 1326   2.147   0.759   2.524 -0.2772 -1.7678 -2.7663
  443SOL     OW 1327   1.350   2.481   2.268  0.8959  0.1831  0.3406
  443SOL    HW1 1328   1.305   2.390   2.283 -0.6722 -0.2302 -0.4984
  443SOL    HW2 1329   1.280   2.553   2.289 -0.7067  0.5130  0.6323
  444SOL     OW 1330   0.954   1.107   1.407 -0.3352  0.0383  0.4959
  444SOL    HW1 1331   1.045   1.067   1.427 -3.1413  2.2933 -0.9149
  444SOL    HW2 1332   0.947   1.206   1.376 -0.8499 -0.9715  3.3214
  445SOL     OW 1333   0.156   2.101   2.013 -0.4182 -0.6487  0.2442
  445SOL    HW1 1334   0.126   2.002   2.040  1.5025 -5.1044 -0.6745
  445SOL    HW2 1335   0.109   2.177   2.063 -0.1032 -0.7662  0.0888
  446SOL     OW 1336   0.157   1.997   2.385 -0.1680 -0.1258  0.0864
  446SOL    HW1 1337   0.145   2.101   2.370 -0.1328  0.8009  2.0375
  446SOL    HW2 1338   0.153   1.946   2.294  3.1288 -2.8774  1.3195
  447SOL     OW 1339   1.349   1.557   1.871  0.1615 -0.2690 -0.3034
  447SOL    HW1 1340   1.272   1.604   1.818 -0.7685 -0.7669 -1.6595
  447SOL    HW2 1341   1.403   1.629   1.927  0.6914  0.4925  0.9527
  448SOL     OW 1342   0.145   1.471   2.019 -0.0584 -0.2999 -0.3488
  448SOL    HW1 1343   0.171   1.564   1.979 -0.7795 -1.6844 -1.0743
  448SOL    HW2 1344   0.063   1.478   2.086  0.5683 -0.6928  1.3581
  449SOL     OW 1345   1.861   3.019   0.831 -0.2992  0.2621  0.0256
  449SOL    HW1 1346   1.843   3.029   0.930 -0.1095  1.0889 -0.9096
  449SOL    HW2 1347   1.903   2.933   0.798  0.8428 -0.3170  0.9343
  450SOL     OW 1348   2.152   1.516   0.665  0.3881 -0.1378  0.0582
  450SOL    HW1 1349   2.170   1.509   0.766 -3.0393 -1.6527  0.3786
  450SOL    HW2 1350   2.200   1.594   0.625 -3.0409 -1.9017  0.0522
  451SOL     OW 1351   1.383   2.986   1.500 -0.0239 -0.2955  0.3685
  451SOL    HW1 1352   1.307   3.042   1.539  0.1770 -2.0566 -1.0233
  451SOL    HW2 1353   1.409   2.911   1.563 -1.1940  2.7644  0.7367
  452SOL     OW 1354   2.685   2.268   2.257 -0.7268 -0.2820  0.0010
  452SOL    HW1 1355   2.616   2.348   2.270 -0.6710 -0.5379 -0.9851
  452SOL    HW2 1356   2.734   2.239   2.344 -1.8585 -1.5197  0.9181
  453SOL     OW 1357   2.477   2.694   0.014  0.1583 -0.4219 -0.3259
  453SOL    HW1 1358   2.381   2.711   0.057 -0.9975  1.8602 -1.1305
  453SOL    HW2 1359   2.470   2.614  -0.057  0.0347  1.1449 -0.3614
  454SOL     OW 1360   0.869   1.168   2.003 -0.2281 -0.5730  0.2522
  454SOL    HW1 1361   0.811   1.203   1.923  0.9015 -1.1396  2.5910
  454SOL    HW2 1362   0.969   1.205   2.008  0.3668 -2.4464  0.5777
  455SOL     OW 1363   0.798   2.605   2.789 -0.1145 -0.1591  0.0895
  455SOL    HW1 1364   0.871   2.679   2.799  2.9401 -0.8021  1.5025
  455SOL    HW2 1365   0.786   2.536   2.865  2.0102  0.3005  1.0330
  456SOL     OW 1366   0.299   1.946   0.172 -0.0989 -0.6136  0.0950
  456SOL    HW1 1367   0.374   1.996   0.221 -1.2239 -1.8805  1.3711
  456SOL    HW2 1368   0.224   2.008   0.133 -3.4108 -0.8802 -4.4454
  457SOL     OW 1369   0.408   2.706   0.633  0.2679 -0.4160 -0.2744
  457SOL    HW1 1370   0.440   2.731   0.538 -1.6026 -0.7877 -0.4130
  457SOL    HW2 1371   0.488   2.675   0.693  3.3870  2.0501  0.2116
  458SOL     OW 1372   2.971   0.020   1.310 -0.0268 -0.1789  0.2501
  458SOL    HW1 1373   3.070   0.042   1.331 -0.8496 -2.9898  1.3814
  458SOL    HW2 1374   2.965  -0.043   1.228 -1.1103 -1.7396 -1.7239
  459SOL     OW 1375   2.115   2.554   0.754  0.0878  0.1397 -0.3706
  459SOL    HW1 1376   2.169   2.518   0.837 -2.2099 -0.5695  0.0035
  459SOL    HW2 1377   2.164   2.566   0.667  0.2058  3.4633  1.4678
  460SOL     OW 1378   1.228   2.103   2.800  0.0746  0.5483  0.8336
  460SOL    HW1 1379   1.231   2.133   2.701  0.3060  0.7986  0.3247
  460SOL    HW2 1380   1.276   2.010   2.811 -0.5065 -1.7799 -3.4216
  461SOL     OW 1381   0.472   2.121   2.703 -0.2251  0.2385  0.1767
  461SOL    HW1 1382   0.378   2.078   2.706 -0.8126 -1.6545  0.6249
  461SOL    HW2 1383   0.550   2.067   2.745 -0.5575 -0.4426 -2.2999
  462SOL     OW 1384   0.987   1.050   1.743 -0.4261  0.4901 -0.1409
  462SOL    HW1 1385   0.971   0.988   1.662 -2.0632 -2.6709 -0.5619
  462SOL    HW2 1386   0.927   1.133   1.747 -1.0822  1.4113 -0.7706
  463SOL     OW 1387   0.409   0.800   0.498 -0.6585  0.0526  0.3871
  463SOL    HW1 1388   0.460   0.712   0.464  2.0748  0.6392 -1.7566
  463SOL    HW2 1389   0.306   0.786   0.519 -2.3612 -2.6664 -2.1769
  464SOL     OW 1390   0.563   2.342   2.291  0.0950  0.7564 -0.2080
  464SOL    HW1 1391   0.486   2.384   2.342 -1.1283 -0.5904  0.7952
  464SOL    HW2 1392   0.539   2.315   2.196  1.6359 -0.1495  3.3163
  465SOL     OW 1393   0.232   0.943   0.813  0.1076 -0.0958 -0.6946
  465SOL    HW1 1394   0.136   0.966   0.776 -1.1106  0.9919  0.7541
  465SOL    HW2 1395   0.253   0.838   0.797 -3.1091 -1.5440 -3.0612
  466SOL     OW 1396   1.374   1.120   0.853 -0.3905 -0.0163  0.3750
  466SOL    HW1 1397   1.389   1.224   0.854  0.3393 -1.1551  0.3919
  466SOL    HW2 1398   1.276   1.100   0.880 -0.0636  0.4808 -0.6289
  467SOL     OW 1399   0.576   0.457   2.516  0.5996 -0.2355 -0.4334
  467SOL    HW1 1400   0.501   0.531   2.518 -0.4801 -0.3931  1.0056
  467SOL    HW2 1401   0.549   0.382   2.580  0.8242  1.9616 -0.1667
  468SOL     OW 1402   0.484   2.280   1.625  0.3257  0.4300 -0.4948
  468SOL    HW1 1403   0.578   2.315   1.654 -0.8104 -0.7765  0.4754
  468SOL    HW2 1404   0.475   2.272   1.522  1.5162  0.1257  0.6737
  469SOL     OW 1405   1.459   1.343   1.197 -0.3519 -1.0632 -0.0529
  469SOL    HW1 1406   1.535   1.376   1.136 -0.9069  0.4778  3.1326
  469SOL    HW2 1407   1.429   1.411   1.266 -1.2081 -2.0353  0.7645
  470SOL     OW 1408   2.954   1.842   0.800 -0.5306 -0.1065  0.7764
  470SOL    HW1 1409   3.035   1.870   0.740  0.3132 -1.2281 -0.5038
  470SOL    HW2 1410   2.971   1.861   0.900  2.0306 -1.4417  0.9421
  471SOL     OW 1411   2.677   1.399   2.150 -0.0623 -0.8696 -0.7634
  471SOL    HW1 1412   2.656   1.306   2.200  0.0637 -2.6268  0.0864
  471SOL    HW2 1413   2.755   1.453   2.190  4.0197  0.8947 -1.9015
  472SOL     OW 1414   1.269   2.408   0.032  0.3610  0.0930 -0.7895
  472SOL    HW1 1415   1.334   2.325   0.029  0.7440 -1.9673  0.2294
  472SOL    HW2 1416   1.175   2.379   0.070 -1.1245  0.6379 -0.2935
  473SOL     OW 1417   1.067   1.479   0.971 -0.0624  1.2213  0.5752
  473SOL    HW1 1418   0.971   1.497   0.937 -1.8028  0.7026  0.9290
  473SOL    HW2 1419   1.071   1.403   1.043  1.2489 -2.5097 -0.4215
  474SOL     OW 1420   0.609   1.262   0.415  0.2318  0.3229  0.6687
  474SOL    HW1 1421   0.530   1.195   0.420  0.2071  2.2431  1.3219
  474SOL    HW2 1422   0.697   1.215   0.432 -0.5638  1.2433  1.6021
  475SOL     OW 1423   2.901   0.002   0.900  0.9665  0.6435  0.1461
  475SOL    HW1 1424   2.943   0.096   0.906 -2.5468 -1.1459 -1.5289
  475SOL    HW2 1425   2.799   0.011   0.917  2.7594  1.4348 -3.9913
  476SOL     OW 1426   0.973   3.057   1.817  0.2055 -0.4498 -0.2768
  476SOL    HW1 1427   1.074   3.074   1.807 -0.0956  0.6189  0.9705
  476SOL    HW2 1428   0.918   3.075   1.734  2.7553  1.1910 -0.1259
  477SOL     OW 1429   1.476   0.297   2.455 -0.5629  0.3605 -0.3899
  477SOL    HW1 1430   1.495   0.350   2.544 -0.1696 -1.7346  1.5829
  477SOL    HW2 1431   1.549   0.223   2.444 -0.1167  1.0024 -0.7964
  478SOL     OW 1432   2.269   1.958   0.335 -0.3673  0.6550 -0.3837
  478SOL    HW1 1433   2.198   1.886   0.349  0.5004  3.6540  2.3447
  478SOL    HW2 1434   2.367   1.919   0.324  0.3715  2.0496  0.9175
  479SOL     OW 1435   1.289   1.039   2.901 -0.2166  0.3189  0.0260
  479SOL    HW1 1436   1.368   1.072   2.836 -0.6082 -0.1198 -3.5293
  479SOL    HW2 1437   1.210   0.995   2.843 -0.7840 -0.7696 -3.0729
  480SOL     OW 1438   2.626   2.245   0.423 -0.2086 -0.4172 -0.2261
  480SOL    HW1 1439   2.714   2.189   0.442 -1.0445  1.3788  1.0624
  480SOL    HW2 1440   2.556   2.224   0.496 -0.5835 -1.0402 -0.3045
  481SOL     OW 1441   0.945   1.111   0.745 -0.3416 -0.1503  0.6486
  481SOL    HW1 1442   0.982   1.180   0.685 -3.3173 -1.9051  0.5356
  481SOL    HW2 1443   0.998   1.101   0.835 -0.6439  2.2366 -0.3348
  482SOL     OW 1444   1.581   0.278   2.003 -0.0547 -0.4470 -0.1045
  482SOL    HW1 1445   1.576   0.380   1.990  0.8936 -1.2386 -3.7797
  482SOL    HW2 1446   1.672   0.237   2.034  1.1286 -0.3007 -0.5428
  483SOL     OW 1447   0.182   2.345   1.224 -0.8719 -0.1489 -0.2938
  483SOL    HW1 1448   0.121   2.396   1.287 -0.4642  2.6351  0.2159
  483SOL    HW2 1449   0.189   2.395   1.132 -0.7519 -1.4588  0.8087
  484SOL     OW 1450   1.730   1.071   1.439  0.4405 -0.9548 -0.1455
  484SOL    HW1 1451   1.820   1.020   1.445 -1.9721 -0.2626  1.4977
  484SOL    HW2 1452   1.718   1.159   1.487 -0.8160 -2.3821  3.0627
  485SOL     OW 1453   0.801   0.737   1.913 -0.1061  0.4688 -0.0274
  485SOL    HW1 1454   0.756   0.759   1.821 -1.5852  1.0858 -1.3016
  485SOL    HW2 1455   0.891   0.687   1.902 -0.9049  0.5004 -0.1520
  486SOL     OW 1456   0.924   1.825   2.468 -0.2463 -0.7122 -0.0943
  486SOL    HW1 1457   0.924   1.822   2.576  0.9340 -0.4658  0.4718
  486SOL    HW2 1458   0.919   1.927   2.441  1.3049 -0.1871  0.2053
  487SOL     OW 1459   1.768   1.554   1.042  0.0930 -0.0024 -0.5729
  487SOL    HW1 1460   1.789   1.458   1.069 -1.1690 -2.5490 -1.1975
  487SOL    HW2 1461   1.834   1.589   0.968  0.7384 -3.2325  0.6077
  488SOL     OW 1462   2.866   0.880   2.300  0.2746  0.3898 -0.4806
  488SOL    HW1 1463   2.956   0.881   2.347  2.6769 -2.0117 -1.1049
  488SOL    HW2 1464   2.805   0.805   2.336  0.7758  0.8851 -2.5805
  489SOL     OW 1465   2.892   0.312   1.280  0.0907  0.3348  0.0579
  489SOL    HW1 1466   2.835   0.284   1.365  0.9618 -0.0654  0.2788
  489SOL    HW2 1467   2.969   0.247   1.258 -1.6130  0.6046 -0.7652
  490SOL     OW 1468   1.540   2.995   2.783  0.2357 -0.3906  0.4291
  490SOL    HW1 1469   1.589   2.902   2.783 -0.0788 -1.6239 -2.8846
  490SOL    HW2 1470   1.476   3.009   2.701 -0.2052  0.8281 -2.1788
  491SOL     OW 1471   1.787   1.533   2.717  0.0358  0.4954  0.6058
  491SOL    HW1 1472   1.779   1.460   2.794  1.9637 -1.7754 -0.9809
  491SOL    HW2 1473   1.889   1.570   2.712  2.3177 -2.0011  1.0465
  492SOL     OW 1474   0.680   2.168   0.579  0.3812  0.5219 -0.2383
  492SOL    HW1 1475   0.645   2.161   0.682  0.8607  4.2991  4.5325
  492SOL    HW2 1476   0.603   2.179   0.514 -0.3766 -4.4360  0.3233
  493SOL     OW 1477   0.384   1.347   2.100 -0.5753  0.3088 -0.1316
  493SOL    HW1 1478   0.290   1.390   2.080  0.5815 -0.0807 -2.0481
  493SOL    HW2 1479   0.375   1.250   2.130 -1.6489 -0.2388  2.8427
  494SOL     OW 1480   2.731   2.655   0.147  0.5033 -0.7327  0.8084
  494SOL    HW1 1481   2.748   2.648   0.252  0.4090 -0.9506  3.5845
  494SOL    HW2 1482   2.641   2.706   0.119 -3.5940 -0.9523 -1.3258
  495SOL     OW 1483   2.538   2.804   2.700  0.3130 -0.1237  0.1427
  495SOL    HW1 1484   2.525   2.703   2.677  1.8409  1.3508 -2.1833
  495SOL    HW2 1485   2.633   2.836   2.657  0.9818  0.0078  0.4592
  496SOL     OW 1486   1.996   2.235   0.843 -0.1114  0.2581 -0.0837
  496SOL    HW1 1487   2.051   2.162   0.802  0.0659 -2.1253  2.3194
  496SOL    HW2 1488   2.051   2.284   0.915  1.0502  1.6229 -2.1686
  497SOL     OW 1489   0.347   2.982   2.356  0.3308  1.1483 -0.0822
  497SOL    HW1 1490   0.267   3.050   2.383 -0.8204  1.8282 -0.7702
  497SOL    HW2 1491   0.379   2.998   2.258 -1.8935  1.4781 -0.1769
  498SOL     OW 1492   1.132   1.277   1.131 -0.0208  0.0262  0.2123
  498SOL    HW1 1493   1.232   1.294   1.131  1.1369  1.0725  1.1247
  498SOL    HW2 1494   1.093   1.308   1.220  1.4386  0.9049  1.2152
  499SOL     OW 1495   0.631   1.677   0.453 -0.0286 -0.5479  0.3576
  499SOL    HW1 1496   0.631   1.644   0.353 -0.2523 -2.8150  3.7136
  499SOL    HW2 1497   0.697   1.755   0.468 -1.9292 -0.4166 -0.2218
  500SOL     OW 1498   1.476   2.784   1.659  0.2937  0.2988  0.5877
  500SOL    HW1 1499   1.441   2.763   1.751 -0.7104 -2.0331  2.1272
  500SOL    HW2 1500   1.500   2.698   1.603  2.7359 -3.4332 -3.4434
  501SOL     OW 1501   0.820   1.262   2.246  0.4566 -0.3199  0.5376
  501SOL    HW1 1502   0.745   1.209   2.296  0.5841 -0.0966 -1.0940
  501SOL    HW2 1503   0.834   1.226   2.150  0.3199  0.7265  0.8305
  502SOL     OW 1504   2.533   0.962   1.780 -0.3299  1.4525 -0.4402
  502SOL    HW1 1505   2.576   0.985   1.694 -1.1137 -2.0866  1.6822
  502SOL    HW2 1506   2.497   0.863   1.775 -0.6243 -1.2341 -1.6226
  503SOL     OW 1507   1.187   0.144   0.684 -0.8148 -0.2686 -0.5088
  503SOL    HW1 1508   1.144   0.228   0.645 -0.0628 -1.8824 -1.3169
  503SOL    HW2 1509   1.277   0.159   0.737 -1.3662 -1.5091 -1.1422
  504SOL     OW 1510   2.964   2.380   1.479 -0.0841 -0.1714  0.0927
  504SOL    HW1 1511   2.869   2.377   1.518  0.7678 -0.4781 -0.0600
  504SOL    HW2 1512   3.037   2.345   1.548  3.3776  1.3520  0.2892
  505SOL     OW 1513   2.338   1.165   1.528 -0.1000 -0.7031  0.6072
  505SOL    HW1 1514   2.332   1.173   1.423 -0.2717  1.2186 -1.1285
  505SOL    HW2 1515   2.379   1.248   1.580 -1.2901 -0.2153  1.2498
  506SOL     OW 1516   1.945   0.254   1.891 -0.0514  0.4398  0.9304
  506SOL    HW1 1517   2.044   0.226   1.875 -1.8422 -1.4466 -0.9207
  506SOL    HW2 1518   1.935   0.353   1.890  2.7704 -0.5581  1.3854
  507SOL     OW 1519   0.509   0.771   2.179  1.1855  0.2264 -0.1256
  507SOL    HW1 1520   0.438   0.700   2.143 -0.6224  0.6356  0.7354
  507SOL    HW2 1521   0.587   0.727   2.225 -1.4804  0.0676  1.3686
  508SOL     OW 1522   0.322   1.627   0.829  0.7316  0.4908  0.1949
  508SOL    HW1 1523   0.419   1.646   0.794  0.6911  0.3611 -0.0014
  508SOL    HW2 1524   0.283   1.696   0.897  0.2821 -2.8465  0.5712
  509SOL     OW 1525   1.270   1.183   2.434 -0.0225 -0.1326 -0.3026
  509SOL    HW1 1526   1.312   1.130   2.353  1.4567  1.6785 -1.1926
  509SOL    HW2 1527   1.167   1.187   2.414 -0.4077 -1.4577 -0.7481
  510SOL     OW 1528   1.392   2.039   2.151  0.2481  0.1266  0.3542
  510SOL    HW1 1529   1.317   2.109   2.136 -0.3235 -0.0947 -0.3183
  510SOL    HW2 1530   1.369   1.952   2.102 -1.0355  0.7327 -2.1976
  511SOL     OW 1531   2.988   2.637   1.397 -0.0108 -0.2336  0.1969
  511SOL    HW1 1532   2.906   2.656   1.339  0.4686  1.5432 -1.1336
  511SOL    HW2 1533   2.988   2.544   1.442 -2.3935  1.9196 -1.9583
  512SOL     OW 1534   2.387   0.430   1.382 -0.1279  0.4754  0.5713
  512SOL    HW1 1535   2.312   0.469   1.319 -2.0948  0.4158 -1.7604
  512SOL    HW2 1536   2.466   0.394   1.324 -1.3799 -0.8106 -1.7968
  513SOL     OW 1537   2.592   2.167   0.970  0.3144  0.1601  0.8791
  513SOL    HW1 1538   2.545   2.234   0.907 -1.7661  1.9882 -0.3777
  513SOL    HW2 1539   2.646   2.095   0.916 -0.4518  1.4993  2.2583
  514SOL     OW 1540   0.576   2.801   0.417  0.1194 -0.7267  0.4715
  514SOL    HW1 1541   0.617   2.832   0.325 -1.6573  1.8912 -1.7298
  514SOL    HW2 1542   0.627   2.842   0.496  0.0697  0.2956 -1.0018
  515SOL     OW 1543   1.951   1.350   2.371 -0.2843 -0.2801  0.4267
  515SOL    HW1 1544   1.946   1.314   2.272  0.8166  0.2422  2.5802
  515SOL    HW2 1545   1.885   1.298   2.434 -1.0248 -2.4174 -1.5645
  516SOL     OW 1546   0.211   0.156   1.923  0.0113  0.0493 -0.2029
  516SOL    HW1 1547   0.312   0.178   1.907  0.7551  1.2442  0.2364
  516SOL    HW2 1548   0.170   0.095   1.852  0.6226  1.3803  0.8142
  517SOL     OW 1549   0.472   0.240   1.136  0.4387  0.1424  0.3453
  517SOL    HW1 1550   0.551   0.193   1.183  0.8172 -0.2315  2.3994
  517SOL    HW2 1551   0.387   0.191   1.158  0.0534  1.7357  0.6978
  518SOL     OW 1552   2.247   3.045   1.855 -0.7138  0.1540  0.1128
  518SOL    HW1 1553   2.238   3.145   1.889 -0.2931 -0.0568  1.1738
  518SOL    HW2 1554   2.248   3.036   1.752  1.2547  2.1300 -0.7841
  519SOL     OW 1555   2.386   2.250   2.529 -0.8273  0.2608 -0.6879
  519SOL    HW1 1556   2.338   2.198   2.604 -0.6204  1.3012  1.1926
  519SOL    HW2 1557   2.453   2.322   2.564 -2.0324  0.2959 -1.4144
  520SOL     OW 1558   1.798   2.633   1.720  0.5350  0.5473  0.6703
  520SOL    HW1 1559   1.744   2.607   1.810 -2.8579  2.1614 -0.8834
  520SOL    HW2 1560   1.880   2.574   1.713 -0.8972 -1.1599 -1.1499
  521SOL     OW 1561   0.604   0.097   2.162  0.0286 -0.8320 -0.3102
  521SOL    HW1 1562   0.515   0.050   2.124 -3.2562  1.1863  1.8279
  521SOL    HW2 1563   0.645   0.058   2.249  0.7601  4.2276  0.8394
  522SOL     OW 1564   0.202   1.879   1.544 -0.5139 -0.1009 -0.1206
  522SOL    HW1 1565   0.256   1.924   1.620  0.8715 -0.1655 -2.2703
  522SOL    HW2 1566   0.152   1.945   1.479 -1.1589  0.1789  0.3799
  523SOL     OW 1567   2.216   3.000   1.586  0.2774  0.1841 -0.2056
  523SOL    HW1 1568   2.291   2.925   1.578  1.5748 -1.6060  0.1061
  523SOL    HW2 1569   2.122   2.968   1.560 -0.9388 -0.6150 -2.3456
  524SOL     OW 1570   0.209   2.755   2.800  0.4163  0.0133 -0.2882
  524SOL    HW1 1571   0.180   2.790   2.892 -1.1396 -1.2194 -1.1199
  524SOL    HW2 1572   0.303   2.790   2.778 -1.4476  1.5005  0.9472
  525SOL     OW 1573   2.152   2.153   0.500 -0.6070 -0.0181  0.6995
  525SOL    HW1 1574   2.133   2.095   0.585  2.6598  0.9095  0.0893
  525SOL    HW2 1575   2.185   2.093   0.417  0.9023 -0.8934  0.3221
  526SOL     OW 1576   0.426   1.482   1.673  0.0498 -0.2650 -0.2340
  526SOL    HW1 1577   0.456   1.564   1.731  0.9107 -0.4233  0.0744
  526SOL    HW2 1578   0.444   1.393   1.719  0.3783  0.9850  1.2280
  527SOL     OW 1579   1.137   3.071   1.136 -0.6346  0.3032  0.1219
  527SOL    HW1 1580   1.169   3.010   1.215  0.0898 -0.1182 -1.1865
  527SOL    HW2 1581   1.208   3.144   1.118 -3.5940 -1.2510  0.2216
  528SOL     OW 1582   1.317   2.422   0.627  0.1729  0.0559  0.8143
  528SOL    HW1 1583   1.350   2.320   0.636  1.3567 -1.1578 -1.1914
  528SOL    HW2 1584   1.358   2.482   0.696  0.7910 -2.1777  0.7411
  529SOL     OW 1585   1.891   1.677   0.809  0.1009 -0.2548 -0.1800
  529SOL    HW1 1586   1.830   1.684   0.721 -1.1819  0.2686 -1.2161
  529SOL    HW2 1587   1.905   1.772   0.851 -2.3330 -2.1079  3.3486
  530SOL     OW 1588   0.481   2.561   0.160 -0.1181  0.2428  0.6270
  530SOL    HW1 1589   0.493   2.534   0.259  0.5455  0.2366 -2.6815
  530SOL    HW2 1590   0.489   2.474   0.097  0.0420  0.5436 -0.9725
  531SOL     OW 1591   1.777   0.954   1.029 -0.1311  0.2583  0.3639
  531SOL    HW1 1592   1.820   0.991   0.943  0.3800 -1.1182  1.1074
  531SOL    HW2 1593   1.673   0.948   1.020  1.8784 -2.2084  1.4274
  532SOL     OW 1594   0.382   1.129   0.694 -0.8730 -0.0507  0.4397
  532SOL    HW1 1595   0.380   1.097   0.593 -3.2738  0.5276 -0.8442
  532SOL    HW2 1596   0.333   1.058   0.751 -2.3689 -0.6645  0.6115
  533SOL     OW 1597   1.839   3.079   2.663  0.0537 -0.0073  0.3361
  533SOL    HW1 1598   1.942   3.079   2.654 -0.5028 -0.0606 -1.0687
  533SOL    HW2 1599   1.792   3.172   2.661 -1.7026  2.8354  0.1368
  534SOL     OW 1600   0.196   0.191   1.568  0.0764  0.7296  0.0155
  534SOL    HW1 1601   0.243   0.279   1.545 -2.0458  0.4639  0.1837
  534SOL    HW2 1602   0.100   0.208   1.587  0.5250  0.7904  1.3880
  535SOL     OW 1603   1.883   0.405   0.160  0.2601 -0.0598  0.8652
  535SOL    HW1 1604   1.932   0.480   0.207  1.3033  0.0163 -1.2123
  535SOL    HW2 1605   1.810   0.348   0.220 -0.9162 -1.5181  0.9636
  536SOL     OW 1606   1.215   2.498   0.925 -0.4484  0.4479 -0.0735
  536SOL    HW1 1607   1.279   2.417   0.920 -0.7485  0.7737 -0.4816
  536SOL    HW2 1608   1.164   2.517   0.835  1.6877 -1.2695  0.0765
  537SOL     OW 1609   0.910   0.198   2.314  0.2708  0.3501  0.1741
  537SOL    HW1 1610   0.833   0.207   2.245  0.5680 -2.5168 -1.6005
  537SOL    HW2 1611   0.986   0.124   2.292  1.7906 -2.7187 -1.6371
  538SOL     OW 1612   1.749   2.207   1.603 -0.7755  0.2412 -0.7776
  538SOL    HW1 1613   1.701   2.153   1.529  0.1028  0.8608  0.8478
  538SOL    HW2 1614   1.803   2.295   1.576  3.8510 -0.4222 -1.0388
  539SOL     OW 1615   0.178   1.567   2.771 -0.0675 -0.2038 -0.0122
  539SOL    HW1 1616   0.098   1.568   2.708  1.1569 -0.8053  0.3566
  539SOL    HW2 1617   0.265   1.600   2.729 -1.0708 -0.3293  0.3436
  540SOL     OW 1618   2.705   1.796   2.119  0.3435  0.0276 -0.1791
  540SOL    HW1 1619   2.629   1.724   2.123  0.0874 -1.8406  2.1335
  540SOL    HW2 1620   2.699   1.869   2.043 -0.6345 -0.5470  3.4477
  541SOL     OW 1621   0.456   2.327   0.011  0.1958 -0.0973 -0.1945
  541SOL    HW1 1622   0.487   2.261   0.086  0.5002  1.0366 -2.4464
  541SOL    HW2 1623   0.368   2.291  -0.028  2.3209 -1.6558 -0.9205
  542SOL     OW 1624   2.193   2.593   0.485 -0.5278  0.1353  0.4410
  542SOL    HW1 1625   2.209   2.666   0.411  1.0970 -0.2080 -0.1991
  542SOL    HW2 1626   2.103   2.547   0.479  0.8195 -0.5609  2.4573
  543SOL     OW 1627   1.103   1.698   1.799 -0.0074  0.3667  0.2619
  543SOL    HW1 1628   1.120   1.760   1.883  1.3337 -0.4639  1.7160
  543SOL    HW2 1629   1.039   1.742   1.737  1.6674  2.4180  2.4216
  544SOL     OW 1630   0.853   0.494   0.102  0.0182 -0.7147  0.1328
  544SOL    HW1 1631   0.895   0.474   0.192 -2.5543  0.5795 -0.3501
  544SOL    HW2 1632   0.896   0.442   0.021 -1.9920 -1.4414 -0.3850
  545SOL     OW 1633   1.155   1.740   0.621 -0.4025  0.3064  0.6639
  545SOL    HW1 1634   1.232   1.723   0.690  0.1871 -0.0784 -0.7828
  545SOL    HW2 1635   1.180   1.726   0.523 -1.1011 -0.7338 -0.4871
  546SOL     OW 1636   2.663   1.615   0.036 -0.0176  0.3333 -0.1163
  546SOL    HW1 1637   2.697   1.598  -0.055 -2.2928 -1.8171  2.3905
  546SOL    HW2 1638   2.562   1.588   0.040 -2.0496 -0.7160  0.0427
  547SOL     OW 1639   0.456   3.046   2.731  0.6764  0.3788 -0.3890
  547SOL    HW1 1640   0.489   2.980   2.658 -0.1910 -0.3643  0.3943
  547SOL    HW2 1641   0.484   3.011   2.819 -0.5379  2.1572 -3.9243
  548SOL     OW 1642   2.070   0.783   2.978  0.7162  0.1883  0.0865
  548SOL    HW1 1643   1.973   0.762   3.025 -4.0579 -0.5755 -0.1385
  548SOL    HW2 1644   2.096   0.882   2.965  1.2703  2.6468 -2.3555
  549SOL     OW 1645   0.575   0.470   0.059 -0.3307  0.0525 -0.0711
  549SOL    HW1 1646   0.549   0.551  -0.001 -1.7844 -1.5249  1.6806
  549SOL    HW2 1647   0.675   0.467   0.088  0.6226 -0.5344  2.2689
  550SOL     OW 1648   2.536   2.893   2.953 -0.0288 -0.0947  0.2315
  550SOL    HW1 1649   2.513   2.805   3.010  0.1808 -1.8542 -2.9623
  550SOL    HW2 1650   2.539   2.878   2.849 -1.0025  0.0969  0.8167
  551SOL     OW 1651   0.282   0.798   0.231  0.4964 -0.0378 -0.5935
  551SOL    HW1 1652   0.378   0.768   0.246 -1.4493 -2.3143  0.3727
  551SOL    HW2 1653   0.229   0.804   0.321  1.6427 -1.5609 -0.4726
  552SOL     OW 1654   0.856   2.812   1.904 -0.2007 -0.2939  0.3674
  552SOL    HW1 1655   0.835   2.810   2.010  0.8634 -0.5574 -0.8183
  552SOL    HW2 1656   0.895   2.902   1.872  1.9111 -0.6230 -1.5393
  553SOL     OW 1657   0.009   2.558   0.341 -0.5422 -0.0592 -0.0886
  553SOL    HW1 1658  -0.034   2.461   0.332  0.8952 -1.5003 -1.8461
  553SOL    HW2 1659   0.072   2.568   0.424  1.0150  1.5891 -0.5963
  554SOL     OW 1660   2.108   0.341   0.496  0.0060  0.4013 -0.0759
  554SOL    HW1 1661   2.094   0.312   0.396  2.7022 -0.9735 -0.1855
  554SOL    HW2 1662   2.089   0.265   0.563 -0.9394 -0.1278  0.5797
  555SOL     OW 1663   0.514   2.850   2.550 -0.1376 -0.2241 -0.0819
  555SOL    HW1 1664   0.444   2.868   2.474  0.6473  0.6325  0.4591
  555SOL    HW2 1665   0.610   2.851   2.505  2.1868 -0.7584 -2.4612
  556SOL     OW 1666   0.979   2.343   1.613 -0.4511 -0.2401  0.2920
  556SOL    HW1 1667   1.012   2.402   1.695 -0.5584  2.2652  1.6368
  556SOL    HW2 1668   1.026   2.369   1.524  2.0309  0.6389  2.0691
  557SOL     OW 1669   0.125   2.115   0.070  0.0636 -0.1663  0.5236
  557SOL    HW1 1670   0.048   2.045   0.062  0.9755 -0.9200  0.6536
  557SOL    HW2 1671   0.146   2.156  -0.022  1.5305 -3.0350  1.1754
  558SOL     OW 1672   2.979   2.306   0.282  0.3353  0.3588 -0.5398
  558SOL    HW1 1673   2.891   2.250   0.262  0.4668  1.3772  1.0713
  558SOL    HW2 1674   3.005   2.360   0.196  0.9283  0.1017 -1.6010
  559SOL     OW 1675   0.439   2.263   1.346 -0.5258 -0.9976 -0.1901
  559SOL    HW1 1676   0.357   2.299   1.290 -1.1585  0.3171  0.4151
  559SOL    HW2 1677   0.477   2.171   1.311  0.5013 -1.1272 -1.8156
  560SOL     OW 1678   2.099   1.040   3.037  0.3663 -0.5755 -0.3447
  560SOL    HW1 1679   2.097   1.113   2.960  1.2665  2.3330 -0.8684
  560SOL    HW2 1680   2.066   1.078   3.127 -0.4660 -0.2898 -1.4442
  561SOL     OW 1681   2.997   1.955   0.041 -0.0674  1.0929  0.4686
  561SOL    HW1 1682   2.963   1.860   0.023  1.0500 -0.8835  2.5397
  561SOL    HW2 1683   2.945   2.028  -0.012  0.7919 -0.4566  1.6401
  562SOL     OW 1684   0.863   2.104   2.461  0.0324  0.6056  0.2303
  562SOL    HW1 1685   0.759   2.091   2.436 -1.0710 -4.9539 -1.3693
  562SOL    HW2 1686   0.872   2.175   2.534  1.0724  0.5941 -2.5261
  563SOL     OW 1687   0.699   2.556   2.545 -0.1096  0.0434  0.4661
  563SOL    HW1 1688   0.622   2.489   2.533 -1.0786 -1.3784 -0.5691
  563SOL    HW2 1689   0.739   2.574   2.641  0.7554 -1.2889 -0.2144
  564SOL     OW 1690   2.766   1.340   2.927 -0.3975 -0.9070 -0.1968
  564SOL    HW1 1691   2.671   1.307   2.964  2.0889 -2.0222  3.1461
  564SOL    HW2 1692   2.797   1.436   2.955 -2.7227 -0.8865  2.0846
  565SOL     OW 1693   2.574   2.035   2.594  0.2838 -0.1958 -0.2615
  565SOL    HW1 1694   2.499   2.102   2.566  0.8711  0.8000 -1.7776
  565SOL    HW2 1695   2.634   2.062   2.677  0.0072 -1.0294  1.3418
  566SOL     OW 1696   2.024   2.800   1.461 -0.1807 -0.8429 -0.1545
  566SOL    HW1 1697   2.051   2.730   1.531  1.2224  0.4001  0.1142
  566SOL    HW2 1698   2.051   2.779   1.364  0.6234  0.9386  2.6512
  567SOL     OW 1699   2.395   0.061   2.229 -0.9095 -0.1695 -0.2279
  567SOL    HW1 1700   2.415   0.086   2.131  2.9738 -0.0924  1.9188
  567SOL    HW2 1701   2.307   0.010   2.251  0.6591  0.0758 -0.0990
  568SOL     OW 1702   1.385   1.799   0.419  0.1509  0.2492 -0.4246
  568SOL    HW1 1703   1.363   1.850   0.336  0.1426 -1.9000  1.2729
  568SOL    HW2 1704   1.394   1.860   0.505 -3.2705 -2.3152  1.9818
  569SOL     OW 1705   0.296   0.686   0.775  0.4711 -0.5806  0.1649
  569SOL    HW1 1706   0.355   0.625   0.714  1.0130 -0.0816 -1.2984
  569SOL    HW2 1707   0.193   0.687   0.738 -2.6326 -2.3218  1.1105
  570SOL     OW 1708   0.588   0.869   2.809  0.1466  0.1307  0.7708
  570SOL    HW1 1709   0.667   0.834   2.752  0.8858 -0.6406 -0.7059
  570SOL    HW2 1710   0.576   0.975   2.812 -1.0437  1.7628  0.9392
  571SOL     OW 1711   0.870   3.085   1.179 -0.5332 -0.4327 -0.1865
  571SOL    HW1 1712   0.855   3.163   1.112  0.1608 -1.2599 -1.2779
  571SOL    HW2 1713   0.972   3.058   1.177 -0.6743 -1.2556 -0.3057
  572SOL     OW 1714   1.478   2.548   1.183 -0.2329 -0.9091 -0.1320
  572SOL    HW1 1715   1.434   2.450   1.193 -1.6946 -1.4308  0.7989
  572SOL    HW2 1716   1.432   2.616   1.116 -1.1023  0.5324 -1.5874
  573SOL     OW 1717   2.943   0.470   2.085 -0.6520  0.6960 -0.3701
  573SOL    HW1 1718   2.871   0.392   2.095 -2.3250 -2.6713  0.9256
  573SOL    HW2 1719   2.918   0.539   2.017  2.8595 -1.5285 -0.4635
  574SOL     OW 1720   0.252   1.807   1.029  0.1211 -0.0954 -0.2613
  574SOL    HW1 1721   0.240   1.903   0.984 -2.2400 -0.8525 -0.9794
  574SOL    HW2 1722   0.178   1.789   1.100  0.9494 -0.9202 -1.4271
  575SOL     OW 1723   0.972   2.189   1.025 -0.9087  0.2149 -0.2308
  575SOL    HW1 1724   0.916   2.243   1.096 -1.9532 -0.2974 -1.7014
  575SOL    HW2 1725   1.058   2.155   1.067 -2.7253  0.6458  1.5818
  576SOL     OW 1726   2.855   2.885   1.743  0.1782 -0.0828 -0.2835
  576SOL    HW1 1727   2.810   2.831   1.671 -0.3155  0.3001  1.6109
  576SOL    HW2 1728   2.785   2.938   1.798  1.1115 -1.6002 -0.1225
  577SOL     OW 1729   2.538   1.252   3.071 -0.1665  0.4036 -0.2375
  577SOL    HW1 1730   2.518   1.162   3.026  1.0365 -0.5355  1.9602
  577SOL    HW2 1731   2.596   1.247   3.160  0.3665  2.4728 -0.0507
  578SOL     OW 1732   1.288   2.786   2.529 -0.1342  0.0761 -0.3508
  578SOL    HW1 1733   1.242   2.751   2.448 -0.6217  1.1271  2.1784
  578SOL    HW2 1734   1.293   2.888   2.537 -2.8421  2.0694  0.9949
  579SOL     OW 1735   0.162   2.581   0.101 -0.2591 -0.0341  0.4068
  579SOL    HW1 1736   0.126   2.582   0.198 -0.3207 -0.4576  0.7329
  579SOL    HW2 1737   0.250   2.527   0.091  1.6335  1.3148  0.6428
  580SOL     OW 1738   0.935   2.666   0.398  0.2983  0.0623 -0.0066
  580SOL    HW1 1739   1.023   2.672   0.343 -1.2938  0.2986 -0.3618
  580SOL    HW2 1740   0.875   2.582   0.374 -2.5058  0.5128  0.5201
  581SOL     OW 1741   1.238   2.481   1.468  0.8384 -0.8165  0.1171
  581SOL    HW1 1742   1.288   2.394   1.461 -0.4428  1.1879  0.2143
  581SOL    HW2 1743   1.262   2.553   1.395  2.7244 -1.4433  1.4163
  582SOL     OW 1744   1.528   0.049   1.873  0.2530  0.2959 -0.1971
  582SOL    HW1 1745   1.541   0.140   1.913 -0.4073 -2.0303 -0.4476
  582SOL    HW2 1746   1.604   0.011   1.808 -1.2466 -1.4406  0.3849
  583SOL     OW 1747   2.337   2.950   0.527  0.0981 -0.2478  0.5808
  583SOL    HW1 1748   2.410   2.899   0.474  3.0500  0.6350 -1.2384
  583SOL    HW2 1749   2.281   2.895   0.594 -1.7746 -0.6041 -1.0436
  584SOL     OW 1750   1.523   0.960   2.082  0.2088  0.1339  0.1680
  584SOL    HW1 1751   1.592   1.022   2.026 -0.1939  0.2515 -1.5200
  584SOL    HW2 1752   1.568   0.911   2.166  1.4753 -2.3443 -2.1559
  585SOL     OW 1753   2.098   2.743   2.856 -0.0463  0.2553  0.8185
  585SOL    HW1 1754   2.128   2.642   2.869  2.6307  0.7665 -1.4065
  585SOL    HW2 1755   1.995   2.758   2.876 -0.7271 -0.8098  1.6201
  586SOL     OW 1756   2.761   0.268   1.542 -0.2403 -0.3830  0.4519
  586SOL    HW1 1757   2.787   0.364   1.578  0.0279  1.2208  0.2101
  586SOL    HW2 1758   2.663   0.233   1.567 -0.7193 -2.2577 -0.0914
  587SOL     OW 1759   2.052   1.608   2.705  0.2323  1.5066 -0.5110
  587SOL    HW1 1760   2.099   1.561   2.622 -3.6310  0.2745 -1.0248
  587SOL    HW2 1761   2.092   1.602   2.800  0.4456  1.2790 -3.3748
  588SOL     OW 1762   0.508   2.715   2.238  0.6789  0.5151  0.2024
  588SOL    HW1 1763   0.442   2.771   2.175 -1.2447  0.5882 -0.5553
  588SOL    HW2 1764   0.457   2.667   2.318  1.4555  0.3761  2.2674
  589SOL     OW 1765   2.163   1.445   2.519 -0.1680  0.5205  0.0382
  589SOL    HW1 1766   2.097   1.405   2.448 -0.8355  0.5589  2.7594
  589SOL    HW2 1767   2.244   1.385   2.552  1.8307  2.9146  2.0854
  590SOL     OW 1768   2.336   1.762   2.030  0.0399 -0.3337  0.5239
  590SOL    HW1 1769   2.385   1.674   2.008  0.9169  0.1672  2.0303
  590SOL    HW2 1770   2.357   1.790   2.130  0.9511 -0.3561  0.2357
  591SOL     OW 1771   1.337   2.442   0.347 -0.8221  0.7934 -0.5846
  591SOL    HW1 1772   1.407   2.395   0.283 -0.1286 -1.3361  0.6463
  591SOL    HW2 1773   1.331   2.391   0.438 -3.1113 -1.9426  1.3163
  592SOL     OW 1774   1.748   2.339   0.778  0.1893  0.2107 -0.4008
  592SOL    HW1 1775   1.734   2.412   0.704 -2.3638 -0.1851 -0.1449
  592SOL    HW2 1776   1.847   2.313   0.796  2.3358 -1.8365 -0.8711
  593SOL     OW 1777   0.540   0.243   2.987 -0.4084 -0.4650 -0.1971
  593SOL    HW1 1778   0.642   0.226   2.984 -0.2943 -0.8204  1.7404
  593SOL    HW2 1779   0.523   0.334   3.026  0.9640 -1.6937 -1.1628
  594SOL     OW 1780   0.973   1.877   2.773  0.7874  0.1248  0.2439
  594SOL    HW1 1781   1.064   1.883   2.827  3.2020  1.4564 -1.1261
  594SOL    HW2 1782   0.907   1.955   2.788 -0.5204  0.7126 -0.7073
  595SOL     OW 1783   1.547   3.074   1.037  0.0704  0.1522  0.0083
  595SOL    HW1 1784   1.607   3.001   1.079  2.2600  3.9611 -2.2620
  595SOL    HW2 1785   1.547   3.072   0.933 -0.1506 -0.9297 -0.4209
  596SOL     OW 1786   3.060   1.482   2.231 -0.1910 -0.1150 -0.1925
  596SOL    HW1 1787   2.992   1.553   2.264  0.8558 -1.0442 -2.4236
  596SOL    HW2 1788   3.108   1.428   2.308 -1.6453 -0.5898  2.4517
  597SOL     OW 1789   2.090   2.556   1.629 -0.4468  0.6584 -0.2072
  597SOL    HW1 1790   2.108   2.464   1.592 -0.7699 -0.7361  2.0313
  597SOL    HW2 1791   2.151   2.582   1.709 -1.3957 -0.8097  0.9689
  598SOL     OW 1792   2.570   2.847   1.261  0.2777 -0.6420  0.6073
  598SOL    HW1 1793   2.649   2.900   1.303  1.2710 -0.2240  0.5018
  598SOL    HW2 1794   2.583   2.831   1.158  1.7500 -0.2260  0.0804
  599SOL     OW 1795   2.938   0.369   2.457  0.1970  0.1591 -0.0867
  599SOL    HW1 1796   3.008   0.392   2.385 -0.9582  0.3049  0.8822
  599SOL    HW2 1797   2.846   0.406   2.425 -1.0742 -0.2216  0.5568
  600SOL     OW 1798   2.817   1.122   2.739 -0.1240 -0.2358  0.0322
  600SOL    HW1 1799   2.757   1.042   2.772  0.0280 -1.0981 -0.7207
  600SOL    HW2 1800   2.817   1.199   2.803  0.5964  0.8483 -1.5883
  601SOL     OW 1801   2.962   1.287   2.029  0.2384 -0.1920  0.0892
  601SOL    HW1 1802   2.895   1.330   1.957 -1.1116  1.1186 -0.9870
  601SOL    HW2 1803   3.011   1.366   2.075  0.3766 -1.2012  0.4797
  602SOL     OW 1804   1.509   1.619   2.280 -0.2398  0.5876  0.1819
  602SOL    HW1 1805   1.443   1.538   2.295 -0.3233  2.4489  0.8765
  602SOL    HW2 1806   1.601   1.599   2.332 -0.3112 -0.9111  0.5870
  603SOL     OW 1807   0.723   1.257   2.604 -0.7640 -0.6422 -0.0995
  603SOL    HW1 1808   0.623   1.230   2.598 -0.3456  0.4332  0.8777
  603SOL    HW2 1809   0.786   1.178   2.613 -1.6306  0.0497 -1.3759
  604SOL     OW 1810   2.403   1.059   0.210 -0.0267 -0.0776  0.0512
  604SOL    HW1 1811   2.486   1.118   0.188 -1.1821  0.3056  2.9411
  604SOL    HW2 1812   2.401   0.965   0.160 -3.7190  2.5554 -0.1143
  605SOL     OW 1813   2.570   1.132   2.004 -0.3215 -0.3644 -0.3356
  605SOL    HW1 1814   2.566   1.048   1.946  2.4991  1.1562 -2.3489
  605SOL    HW2 1815   2.621   1.116   2.094  0.0438 -0.1785 -1.9723
  606SOL     OW 1816   1.489   2.541   2.557 -0.1410 -0.1801 -0.0635
  606SOL    HW1 1817   1.399   2.575   2.525  0.0716  0.4299 -0.3906
  606SOL    HW2 1818   1.504   2.441   2.536 -0.1405 -2.5278 -1.1239
  607SOL     OW 1819   1.314   1.543   0.401 -0.6716  0.3724 -0.2419
  607SOL    HW1 1820   1.274   1.485   0.476  1.5125  0.4215 -1.1278
  607SOL    HW2 1821   1.359   1.635   0.424 -1.6269 -2.1310  0.2265
  608SOL     OW 1822   1.387   2.880   0.362  0.2643 -0.7833 -0.4191
  608SOL    HW1 1823   1.460   2.936   0.318  3.0278 -2.2132 -0.4910
  608SOL    HW2 1824   1.320   2.936   0.416  3.2752 -0.3291 -3.5188
  609SOL     OW 1825   1.355   1.355   0.217 -0.3936 -0.1482  0.4152
  609SOL    HW1 1826   1.361   1.425   0.291 -0.5324 -3.3337 -1.5550
  609SOL    HW2 1827   1.263   1.355   0.169 -2.7174 -0.6967 -1.2982
  610SOL     OW 1828   2.986   1.127   2.268  0.0146  0.0347 -0.5753
  610SOL    HW1 1829   2.938   1.037   2.255 -0.5567  0.5160 -2.2715
  610SOL    HW2 1830   2.958   1.193   2.194 -2.7066  0.6779  1.6076
  611SOL     OW 1831   2.590   0.299   1.185 -0.3829  0.1255 -0.1439
  611SOL    HW1 1832   2.575   0.207   1.146 -0.6699  0.8979  1.2584
  611SOL    HW2 1833   2.690   0.328   1.182  0.2661  0.2341  1.2868
  612SOL     OW 1834   0.728   2.233   1.284 -0.3241  0.3063 -0.0838
  612SOL    HW1 1835   0.668   2.149   1.270 -3.1962 -1.8884  2.1267
  612SOL    HW2 1836   0.712   2.307   1.217  1.9627 -0.2584  2.2309
  613SOL     OW 1837   0.963   1.515   2.340  0.0565 -0.4010  0.0210
  613SOL    HW1 1838   1.001   1.571   2.260 -0.3230  1.0235 -1.2191
  613SOL    HW2 1839   0.907   1.430   2.307  0.2492  0.1638  1.1744
  614SOL     OW 1840   1.611   1.504   1.735 -0.2158 -0.3152  0.3544
  614SOL    HW1 1841   1.557   1.593   1.723 -0.7763  0.5972 -0.8438
  614SOL    HW2 1842   1.675   1.508   1.817 -1.3134  0.7118  1.3769
  615SOL     OW 1843   0.789   1.242   1.767  0.0680 -0.1927 -0.6592
  615SOL    HW1 1844   0.707   1.211   1.717  1.8067  0.6269  2.4860
  615SOL    HW2 1845   0.829   1.330   1.726 -1.4082  1.0304 -1.0789
  616SOL     OW 1846   1.070   1.559   2.087  0.0569 -0.2612 -0.2464
  616SOL    HW1 1847   1.078   1.581   1.983  2.5672 -1.0758 -1.7816
  616SOL    HW2 1848   1.150   1.596   2.135 -0.5077 -1.1217  2.5264
  617SOL     OW 1849   3.014   1.568   1.591  0.2808  0.3417  0.5558
  617SOL    HW1 1850   3.001   1.465   1.600  1.0598  2.1687 -0.5821
  617SOL    HW2 1851   3.008   1.604   1.492  0.3476  2.1510  1.2507
  618SOL     OW 1852   1.869   1.938   1.401 -0.2691  0.1430 -0.6879
  618SOL    HW1 1853   1.877   2.017   1.335  1.7797 -0.5814  0.3248
  618SOL    HW2 1854   1.865   1.841   1.353  0.0004  0.3591 -2.7475
  619SOL     OW 1855   1.713   0.447   2.355  0.2999  0.2627  0.1149
  619SOL    HW1 1856   1.640   0.497   2.301  1.8812 -1.2648  1.5636
  619SOL    HW2 1857   1.694   0.346   2.359  0.8420  3.3568  2.7583
  620SOL     OW 1858   2.259   2.816   0.772 -0.1150 -0.1527  0.1015
  620SOL    HW1 1859   2.158   2.809   0.767 -0.4114 -2.5200 -3.4902
  620SOL    HW2 1860   2.302   2.744   0.835  1.9221 -1.9865 -1.1585
  621SOL     OW 1861   2.195   1.919   1.262  0.2265 -0.4757 -0.2510
  621SOL    HW1 1862   2.180   1.893   1.362  0.2314  0.8673 -1.3808
  621SOL    HW2 1863   2.150   1.852   1.198  0.4720  0.9576  1.0378
  622SOL     OW 1864   2.231   0.889   1.870 -0.0215  0.7214 -0.1857
  622SOL    HW1 1865   2.296   0.873   1.797 -0.4263  1.7765  0.9288
  622SOL    HW2 1866   2.239   0.811   1.941 -1.5573 -2.7391 -0.0832
  623SOL     OW 1867   1.286   0.857   2.539  0.7963 -0.0257 -0.1316
  623SOL    HW1 1868   1.221   0.797   2.587  2.9470 -1.1463  1.1755
  623SOL    HW2 1869   1.250   0.895   2.454 -0.2401 -0.6895  2.6628
  624SOL     OW 1870   0.515   0.696   3.014  0.8761  0.7155  0.1220
  624SOL    HW1 1871   0.549   0.760   2.941 -3.7621  3.4996 -0.2461
  624SOL    HW2 1872   0.529   0.733   3.111 -0.2774  0.9858 -1.2724
  625SOL     OW 1873   2.715   1.691   0.995 -0.2758  0.0013 -0.1953
  625SOL    HW1 1874   2.638   1.763   1.000  2.1383  1.8734  0.7434
  625SOL    HW2 1875   2.809   1.737   1.005 -1.0478 -0.3290 -1.0666
  626SOL     OW 1876   0.642   2.676   1.794  0.1791 -0.1110 -0.1451
  626SOL    HW1 1877   0.721   2.732   1.837  0.8929  2.1404 -1.1161
  626SOL    HW2 1878   0.556   2.671   1.857 -0.0147  1.8644  1.0530
  627SOL     OW 1879   0.655   0.832   1.672  0.1794  0.0090  0.1227
  627SOL    HW1 1880   0.576   0.779   1.625  0.5092 -1.0902 -1.2356
  627SOL    HW2 1881   0.699   0.900   1.606  0.6755  0.8319  1.1125
  628SOL     OW 1882   2.407   0.025   0.734  0.3957 -0.3613 -0.5147
  628SOL    HW1 1883   2.383  -0.042   0.659  1.5666 -1.4602 -0.6529
  628SOL    HW2 1884   2.330   0.083   0.767  2.9165  0.2025 -1.2195
  629SOL     OW 1885   1.846   0.964   1.945  1.0380 -0.5519 -0.1151
  629SOL    HW1 1886   1.873   1.034   1.875  2.3488  1.8387 -0.5162
  629SOL    HW2 1887   1.902   0.974   2.030  1.7436  0.3898  2.2678
  630SOL     OW 1888   2.915   2.220   0.804  0.5159 -0.7269 -0.5760
  630SOL    HW1 1889   2.863   2.287   0.863 -2.4341  0.7698  2.4102
  630SOL    HW2 1890   2.854   2.152   0.759  2.7798  0.5146  3.0723
  631SOL     OW 1891   3.088   0.096   2.057 -0.3555 -0.0382 -0.4007
  631SOL    HW1 1892   3.191   0.123   2.043  0.1338 -4.7277 -0.4535
  631SOL    HW2 1893   3.038   0.074   1.970 -1.1720  1.7877 -1.8614
  632SOL     OW 1894   2.445   2.582   0.641 -0.5062  0.8121  0.1918
  632SOL    HW1 1895   2.510   2.660   0.672 -1.3812  2.1121  1.4956
  632SOL    HW2 1896   2.367   2.618   0.586 -0.2637 -0.2991 -1.4630
  633SOL     OW 1897   1.437   1.245   2.631 -0.0677  0.0135 -0.0011
  633SOL    HW1 1898   1.410   1.342   2.659  0.1601  3.1710  0.4564
  633SOL    HW2 1899   1.382   1.213   2.549 -1.0953  2.2554 -1.9437
  634SOL     OW 1900   0.714   2.198   0.874 -0.2469 -0.3060  0.1550
  634SOL    HW1 1901   0.639   2.152   0.929  1.2156  2.1484  0.9752
  634SOL    HW2 1902   0.806   2.210   0.918  0.1257  0.6830 -1.6012
  635SOL     OW 1903   3.003   2.456   0.042 -0.0439 -0.1462  0.0569
  635SOL    HW1 1904   2.923   2.511   0.004 -1.4566 -1.9960  2.3437
  635SOL    HW2 1905   3.090   2.515   0.037  3.9284  1.0255 -0.1001
  636SOL     OW 1906   2.365   2.692   2.078 -0.0376  0.2229 -0.4847
  636SOL    HW1 1907   2.295   2.771   2.097 -1.9958 -0.6087  1.6760
  636SOL    HW2 1908   2.321   2.602   2.108  1.2085 -1.9354 -0.1602
  637SOL     OW 1909   2.666   0.622   1.941  0.1529 -0.2600 -0.2133
  637SOL    HW1 1910   2.582   0.656   1.886 -0.2830  1.6071  0.7468
  637SOL    HW2 1911   2.742   0.697   1.959  0.0521  1.1668 -1.1923
  638SOL     OW 1912   2.458   1.880   1.313 -0.3353 -0.3903  0.1984
  638SOL    HW1 1913   2.357   1.905   1.302  0.7946  1.0720 -2.1909
  638SOL    HW2 1914   2.470   1.790   1.365 -2.2422 -1.0224 -2.2840
  639SOL     OW 1915   1.253   2.181   1.522 -0.0339 -0.3085  0.1838
  639SOL    HW1 1916   1.337   2.222   1.578  0.2330  2.0498 -0.0153
  639SOL    HW2 1917   1.163   2.193   1.566  2.0411 -1.5852  0.3472
  640SOL     OW 1918   0.217   1.224   1.526  0.7124 -0.3517 -0.4246
  640SOL    HW1 1919   0.226   1.237   1.625  0.0370 -2.7999 -1.9627
  640SOL    HW2 1920   0.275   1.144   1.497 -0.4789 -0.1012 -0.8854
  641SOL     OW 1921   1.964   0.311   1.482 -0.0623  0.0870  0.3302
  641SOL    HW1 1922   1.876   0.327   1.544 -1.1365  1.4366  0.8392
  641SOL    HW2 1923   2.042   0.285   1.542  0.6761 -2.0325  0.9692
  642SOL     OW 1924   2.032   3.070   0.415  0.2591  0.4058 -0.1579
  642SOL    HW1 1925   2.123   3.122   0.428 -0.3452  0.1098 -0.4957
  642SOL    HW2 1926   1.959   3.105   0.485  1.2944 -0.4284 -0.9848
  643SOL     OW 1927   2.958   1.929   2.084  0.2515  0.0571  0.1375
  643SOL    HW1 1928   2.881   1.868   2.058  0.2023 -3.1351 -2.5069
  643SOL    HW2 1929   2.949   2.025   2.051 -2.0261 -2.7932  0.3772
  644SOL     OW 1930   2.265   2.468   1.296  0.2731 -0.5858  0.5466
  644SOL    HW1 1931   2.354   2.423   1.259  0.3902  0.3023 -0.3469
  644SOL    HW2 1932   2.272   2.503   1.393 -2.7532  0.3334  1.5986
  645SOL     OW 1933   0.615   0.789   1.283 -0.1480  0.0429  0.5013
  645SOL    HW1 1934   0.551   0.712   1.307 -0.9674  1.2727  1.0639
  645SOL    HW2 1935   0.573   0.839   1.208  0.5681 -0.5148  0.0046
  646SOL     OW 1936   1.498   1.733   2.024 -0.0660  0.0709 -0.0803
  646SOL    HW1 1937   1.578   1.773   1.967 -1.6101  0.3666  0.0317
  646SOL    HW2 1938   1.514   1.694   2.121 -0.3672 -3.5290 -0.1278
  647SOL     OW 1939   0.763   1.039   0.550  0.9831 -0.4529  0.0434
  647SOL    HW1 1940   0.824   1.030   0.636  0.1506  1.5659  2.5731
  647SOL    HW2 1941   0.666   1.006   0.570  1.2851 -0.0442  0.1931
  648SOL     OW 1942   0.129   0.265   0.371 -0.0708  0.2442  0.9739
  648SOL    HW1 1943   0.062   0.186   0.367 -0.7159 -0.6910  0.4568
  648SOL    HW2 1944   0.103   0.343   0.313  0.4470 -0.7200 -0.1410
  649SOL     OW 1945   3.004   0.270   0.975  0.2218 -1.2271 -0.1248
  649SOL    HW1 1946   3.041   0.284   0.880 -0.2618  1.2738 -0.8355
  649SOL    HW2 1947   3.075   0.260   1.047 -1.4871 -0.6831 -3.5172
  650SOL     OW 1948   2.770   0.675   1.422 -0.3303 -0.2579  0.0417
  650SOL    HW1 1949   2.668   0.666   1.457 -0.8096  0.8973 -1.3979
  650SOL    HW2 1950   2.787   0.775   1.387 -1.3315  2.3549 -0.9144
  651SOL     OW 1951   0.868   1.498   1.696 -0.0033 -0.0786  0.0236
  651SOL    HW1 1952   0.850   1.559   1.780  0.0022  0.1948 -0.5335
  651SOL    HW2 1953   0.963   1.503   1.661  0.7369 -2.1833 -0.9970
  652SOL     OW 1954   2.262   2.557   2.486 -0.2165 -0.3700 -0.0359
  652SOL    HW1 1955   2.204   2.532   2.565  1.0701 -2.4099 -1.3329
  652SOL    HW2 1956   2.245   2.651   2.444  0.4235  2.2824 -1.1086
  653SOL     OW 1957   2.669   1.196   0.225 -0.2438 -0.3627 -0.0891
  653SOL    HW1 1958   2.692   1.297   0.240  1.5726 -2.8442  1.0401
  653SOL    HW2 1959   2.751   1.133   0.247  1.7017  1.1581  2.0738
  654SOL     OW 1960   1.144   2.060   1.247 -0.4339 -0.1869 -0.2094
  654SOL    HW1 1961   1.145   1.978   1.308 -1.5983 -1.5103 -1.0210
  654SOL    HW2 1962   1.213   2.044   1.167  1.2883  0.3640 -2.4468
  655SOL     OW 1963   0.140   1.005   1.867 -0.3713 -0.1880 -0.2408
  655SOL    HW1 1964   0.239   0.972   1.861 -3.4800 -0.5578 -2.7574
  655SOL    HW2 1965   0.142   1.109   1.851  0.7861 -0.6392  1.9516
  656SOL     OW 1966   2.488   2.526   2.642  0.0639 -0.0290  0.0070
  656SOL    HW1 1967   2.582   2.501   2.603  2.0286 -4.6112  1.2150
  656SOL    HW2 1968   2.416   2.549   2.573  0.3993 -1.4914  1.1800
  657SOL     OW 1969   2.956   1.036   1.923 -1.0022 -0.2094  0.4714
  657SOL    HW1 1970   2.971   1.126   1.970 -1.0678  0.7036  1.4402
  657SOL    HW2 1971   3.042   0.993   1.888 -0.8205  1.9285  1.4886
  658SOL     OW 1972   1.673   0.119   2.353 -0.5236  0.3059  0.0165
  658SOL    HW1 1973   1.658   0.022   2.374 -0.2512  0.3476  0.3240
  658SOL    HW2 1974   1.734   0.135   2.274 -1.4955  2.8645  2.6689
  659SOL     OW 1975   1.450   0.667   2.758 -0.6038 -0.5249 -0.0202
  659SOL    HW1 1976   1.495   0.742   2.698 -1.3764  0.0790 -2.1323
  659SOL    HW2 1977   1.356   0.693   2.790  2.6443  0.4887 -0.1281
  660SOL     OW 1978   1.440   0.310   1.419  0.0193 -0.0586 -0.4392
  660SOL    HW1 1979   1.443   0.346   1.521  0.7397 -2.1165  1.7583
  660SOL    HW2 1980   1.517   0.243   1.401 -1.4914  0.0967 -1.8058
  661SOL     OW 1981   2.322   1.311   0.699  0.2278  0.3336  0.2850
  661SOL    HW1 1982   2.412   1.298   0.637  2.5487  0.9336 -1.2038
  661SOL    HW2 1983   2.257   1.390   0.679 -1.9402  1.3239 -0.2246
  662SOL     OW 1984   1.451   0.401   1.699  0.2980 -0.2688  0.0709
  662SOL    HW1 1985   1.417   0.348   1.777 -0.3165 -1.0380  0.6957
  662SOL    HW2 1986   1.436   0.502   1.714  0.4012  0.5255  1.5987
  663SOL     OW 1987   0.773   1.644   1.911 -0.1300  1.3981  0.0727
  663SOL    HW1 1988   0.830   1.687   1.987  1.8514 -1.0970  1.2892
  663SOL    HW2 1989   0.700   1.573   1.949 -1.1599 -1.9772 -0.4167
  664SOL     OW 1990   1.587   2.022   1.438 -0.2029  0.3535  0.6742
  664SOL    HW1 1991   1.498   1.963   1.448 -2.4705 -0.8342  0.6628
  664SOL    HW2 1992   1.672   1.961   1.437  0.8609 -0.3255 -0.9924
  665SOL     OW 1993   2.268   0.635   2.014  0.3931 -0.4871 -0.4993
  665SOL    HW1 1994   2.253   0.529   2.031 -0.0341  0.4327  0.2028
  665SOL    HW2 1995   2.349   0.669   2.068 -0.4837 -2.0433  1.6739
  666SOL     OW 1996   0.484   2.244   0.416  0.2270 -0.2797  0.1039
  666SOL    HW1 1997   0.508   2.339   0.454  1.8381 -0.2011 -2.6656
  666SOL    HW2 1998   0.383   2.229   0.423 -0.3876  2.8626  2.0499
  667SOL     OW 1999   2.069   0.157   1.064  0.2486 -0.0332 -0.9482
  667SOL    HW1 2000   2.065   0.244   1.010  2.9278 -1.3501 -0.7738
  667SOL    HW2 2001   1.992   0.140   1.133  0.4280  1.5993  0.6867
  668SOL     OW 2002   2.019   0.431   1.077 -0.1578  0.2674 -0.2288
  668SOL    HW1 2003   2.106   0.452   1.023  0.7085 -1.0697  0.9557
  668SOL    HW2 2004   2.033   0.464   1.177 -0.3033 -1.8347  1.8288
  669SOL     OW 2005   3.057   2.137   1.024 -0.2097  0.3748  0.1093
  669SOL    HW1 2006   3.014   2.171   0.936 -1.0719  0.2052  0.9150
  669SOL    HW2 2007   3.002   2.155   1.111 -1.6809  0.1341 -0.2667
  670SOL     OW 2008   2.910   2.384   2.147  0.2474 -0.4306 -0.0711
  670SOL    HW1 2009   2.818   2.360   2.183  1.8894 -0.7447 -0.7803
  670SOL    HW2 2010   2.910   2.479   2.109  0.5143 -0.7591 -0.0899
  671SOL     OW 2011   1.820   1.661   1.540 -0.1080 -0.2881 -0.1789
  671SOL    HW1 2012   1.800   1.613   1.451  1.2741  0.4886 -1.0896
  671SOL    HW2 2013   1.827   1.594   1.616  0.4010 -0.7866 -1.4157
  672SOL     OW 2014   0.459   0.712   2.532  0.2947 -0.1180 -0.4004
  672SOL    HW1 2015   0.389   0.699   2.456  0.0924 -0.7982  2.8397
  672SOL    HW2 2016   0.418   0.775   2.606 -1.5765 -0.3123  1.5031
  673SOL     OW 2017   0.078   1.459   0.993  0.5575  0.3933  0.0363
  673SOL    HW1 2018   0.091   1.450   1.097 -0.6585  0.2779  2.0369
  673SOL    HW2 2019   0.131   1.537   0.958 -2.4455 -0.6753 -1.1125
  674SOL     OW 2020   1.536   3.037   0.205  0.0465 -0.1635  0.1241
  674SOL    HW1 2021   1.606   3.101   0.160 -0.7364 -4.3101  0.1160
  674SOL    HW2 2022   1.496   2.980   0.131 -0.8791  2.2700 -1.6376
  675SOL     OW 2023   1.663   0.831   2.308 -0.2713  0.9114 -0.1912
  675SOL    HW1 2024   1.762   0.800   2.298  0.3992 -1.1535  1.1811
  675SOL    HW2 2025   1.596   0.760   2.283  2.4436  0.4105  3.8480
  676SOL     OW 2026   2.520   1.559   1.995  0.5404 -0.3629  0.4300
  676SOL    HW1 2027   2.494   1.533   1.899 -0.1627 -1.1005 -1.5592
  676SOL    HW2 2028   2.556   1.475   2.052  1.3327 -3.9507 -2.4969
  677SOL     OW 2029   1.947   0.672   0.898  0.1226  0.0809  0.4041
  677SOL    HW1 2030   1.876   0.659   0.968  1.0230 -2.5971 -0.4285
  677SOL    HW2 2031   2.039   0.647   0.932  0.7885  2.3689  0.4808
  678SOL     OW 2032   0.116   0.772   1.648  0.0230  0.3285  0.3001
  678SOL    HW1 2033   0.150   0.845   1.714 -1.5588  0.0192 -0.1832
  678SOL    HW2 2034   0.074   0.688   1.694  0.3210  1.7362 -0.3016
  679SOL     OW 2035   2.573   1.118   1.229 -0.0548  0.1764 -0.2039
  679SOL    HW1 2036   2.469   1.150   1.222 -1.5203 -1.1697  0.2787
  679SOL    HW2 2037   2.587   1.023   1.194 -2.6803  1.2997  0.3755
  680SOL     OW 2038   2.850   0.524   1.671 -0.1499 -0.4152  0.3218
  680SOL    HW1 2039   2.836   0.581   1.585  0.8395 -1.6024 -1.7391
  680SOL    HW2 2040   2.921   0.565   1.734  2.4166 -0.1271 -2.2355
  681SOL     OW 2041   3.015   0.121   1.578 -0.8184  0.0633 -0.1812
  681SOL    HW1 2042   3.015   0.050   1.507  0.0944 -1.0075 -1.2713
  681SOL    HW2 2043   2.922   0.164   1.595 -2.6061  0.5784  0.1706
  682SOL     OW 2044   0.650   0.076   1.315 -0.0781  0.1050  0.7097
  682SOL    HW1 2045   0.582   0.006   1.358 -0.4704 -1.1584 -0.2578
  682SOL    HW2 2046   0.713   0.033   1.245 -2.3698 -0.4599 -0.1808
  683SOL     OW 2047   1.351   0.259   2.182 -0.2477 -0.0913 -0.1864
  683SOL    HW1 2048   1.348   0.328   2.256 -0.7766 -3.2292  0.4893
  683SOL    HW2 2049   1.434   0.275   2.119  0.5044  0.3325  0.2944
  684SOL     OW 2050   1.361   2.136   0.604 -0.3021  0.5434 -0.3134
  684SOL    HW1 2051   1.405   2.053   0.646 -2.5256 -1.0903 -1.5722
  684SOL    HW2 2052   1.292   2.108   0.531 -1.6706  1.9901 -0.1055
  685SOL     OW 2053   2.248   2.050   1.982 -0.8037  0.1652 -0.6959
  685SOL    HW1 2054   2.273   1.957   1.954 -0.3589  1.3347  0.8855
  685SOL    HW2 2055   2.336   2.093   2.015 -1.4067  0.1415  2.2684
  686SOL     OW 2056   1.587   1.829   2.903  0.0479  0.6897 -0.9945
  686SOL    HW1 2057   1.580   1.757   2.980 -1.3532 -0.7454  0.3261
  686SOL    HW2 2058   1.495   1.841   2.855  1.2073  0.6427  1.4398
  687SOL     OW 2059   1.425   2.453   2.010 -0.2514 -0.1832 -0.6147
  687SOL    HW1 2060   1.435   2.354   1.984  2.3868  2.0051  1.2141
  687SOL    HW2 2061   1.407   2.470   2.110  2.8447 -1.9004  0.9556
  688SOL     OW 2062   2.055   1.484   1.693 -0.2550 -0.0082 -0.3035
  688SOL    HW1 2063   2.128   1.558   1.704 -0.3457  1.3006  1.5868
  688SOL    HW2 2064   2.047   1.459   1.594  0.5153  1.2724 -1.1596
  689SOL     OW 2065   2.309   1.084   2.796  0.4138 -0.1325 -0.1140
  689SOL    HW1 2066   2.222   1.026   2.775  0.1954 -1.1766  0.0457
  689SOL    HW2 2067   2.342   1.069   2.892  2.2581 -0.4005  0.6484
  690SOL     OW 2068   2.207   2.794   0.020 -0.1880  0.0459  0.2536
  690SOL    HW1 2069   2.149   2.807  -0.064 -1.4090  0.7924 -0.4801
  690SOL    HW2 2070   2.151   2.777   0.107 -0.7411 -1.3485  0.0210
  691SOL     OW 2071   2.549   0.385   2.086  0.1107 -0.2693  0.3464
  691SOL    HW1 2072   2.594   0.289   2.071  0.3838 -0.0359  2.5063
  691SOL    HW2 2073   2.601   0.468   2.044  1.6086  1.7176 -0.3446
  692SOL     OW 2074   2.681   1.228   0.714  0.3218 -0.1286 -0.5160
  692SOL    HW1 2075   2.624   1.218   0.628 -1.1205 -3.2449 -0.1652
  692SOL    HW2 2076   2.721   1.327   0.726  2.8480  0.4522 -0.5211
  693SOL     OW 2077   2.910   2.923   0.681  0.2924  0.0460  0.3083
  693SOL    HW1 2078   2.890   3.002   0.745 -2.0119 -1.6803  1.3734
  693SOL    HW2 2079   2.905   2.945   0.579 -1.7628 -1.4692 -3.5266
  694SOL     OW 2080   2.365   2.270   0.101 -0.1150 -0.0177  0.5074
  694SOL    HW1 2081   2.377   2.339   0.173  0.1559 -0.7036 -1.1760
  694SOL    HW2 2082   2.267   2.235   0.110  2.4001  1.7498  0.3448
  695SOL     OW 2083   0.475   3.011   1.479 -0.2692  0.0331 -0.3541
  695SOL    HW1 2084   0.392   2.972   1.424 -1.5440 -1.4838  3.1002
  695SOL    HW2 2085   0.442   3.071   1.558 -2.2252 -0.7950 -1.1626
  696SOL     OW 2086   2.725   2.007   0.778 -0.5876 -0.3399  0.2348
  696SOL    HW1 2087   2.792   1.944   0.827  1.0881  0.0970  1.6444
  696SOL    HW2 2088   2.659   1.960   0.709 -3.9094 -1.6068 -1.5736
  697SOL     OW 2089   1.661   1.860   1.830  0.6333  0.2784  0.6290
  697SOL    HW1 2090   1.760   1.829   1.812 -0.4702  1.4666  0.9439
  697SOL    HW2 2091   1.657   1.963   1.841 -0.4145  1.2136  3.0393
  698SOL     OW 2092   2.957   0.408   2.730 -0.2223  0.5709  0.3483
  698SOL    HW1 2093   2.973   0.396   2.628 -1.2505 -0.4445  0.3764
  698SOL    HW2 2094   2.987   0.323   2.783 -2.6809 -0.3504 -1.6805
  699SOL     OW 2095   1.637   0.134   2.909  0.4766 -0.6196 -0.1300
  699SOL    HW1 2096   1.600   0.038   2.883 -2.2402 -2.6203  1.8514
  699SOL    HW2 2097   1.678   0.190   2.830  0.5619 -0.7614 -2.9023
  700SOL     OW 2098   0.991   2.284   1.331 -0.0510  0.2129 -0.2742
  700SOL    HW1 2099   1.051   2.202   1.333 -0.7054 -2.1907  1.6752
  700SOL    HW2 2100   0.892   2.254   1.330 -3.4204  0.8012  0.7928
  701SOL     OW 2101   1.855   2.908   0.001 -0.5069  0.9618 -1.0781
  701SOL    HW1 2102   1.843   2.861   0.092  1.3398  0.1002  0.1729
  701SOL    HW2 2103   1.909   2.996   0.015  1.6246 -0.7968  2.1223
  702SOL     OW 2104   2.128   1.356   1.927  0.4577 -0.3259  0.1998
  702SOL    HW1 2105   2.211   1.292   1.925  0.5981 -2.1287 -0.7392
  702SOL    HW2 2106   2.089   1.375   1.832 -1.5513 -2.2398  1.5420
  703SOL     OW 2107   1.957   0.916   1.451 -0.2612  0.2984 -0.1396
  703SOL    HW1 2108   1.928   0.822   1.493 -0.8218 -0.7166 -1.1855
  703SOL    HW2 2109   2.029   0.957   1.511 -0.9547  0.9479  2.6063
  704SOL     OW 2110   0.327   2.077   1.709 -0.4693 -1.0626  0.4405
  704SOL    HW1 2111   0.361   2.054   1.803 -2.5152 -2.3284 -0.7156
  704SOL    HW2 2112   0.371   2.168   1.675  2.7242 -0.9797  1.5798
  705SOL     OW 2113   2.494   1.410   0.905  0.0285 -0.6247  0.5984
  705SOL    HW1 2114   2.426   1.383   0.832 -2.1202  0.3694 -0.8068
  705SOL    HW2 2115   2.591   1.409   0.870  0.4226  0.4705  0.2518
  706SOL     OW 2116   0.520   1.733   1.808  0.1525  0.1544  0.1475
  706SOL    HW1 2117   0.555   1.761   1.716  2.5785  2.2623  0.9557
  706SOL    HW2 2118   0.597   1.709   1.875 -0.2624  1.2729 -0.2702
  707SOL     OW 2119   2.316   1.176   1.874  0.5140  0.1371 -0.1902
  707SOL    HW1 2120   2.416   1.160   1.859 -1.3288  1.1548  1.6224
  707SOL    HW2 2121   2.264   1.089   1.903  1.3097  0.6749  0.8518
  708SOL     OW 2122   3.029   0.542   2.954  0.3742  0.4025 -0.4540
  708SOL    HW1 2123   3.113   0.579   2.899  1.4093 -0.5367 -0.2929
  708SOL    HW2 2124   2.994   0.449   2.911 -1.5749 -0.2949 -1.3328
  709SOL     OW 2125   1.822   1.866   0.421  0.5081 -0.1291  0.7730
  709SOL    HW1 2126   1.846   1.963   0.443 -0.7192 -0.1558  0.7074
  709SOL    HW2 2127   1.829   1.845   0.320 -0.1001  1.2580  2.3117
  710SOL     OW 2128   1.764   1.571   2.430 -0.0312  0.0508  0.0512
  710SOL    HW1 2129   1.825   1.492   2.410  1.3067 -1.9278  2.8118
  710SOL    HW2 2130   1.762   1.590   2.532  0.4951  3.1359 -0.2526
  711SOL     OW 2131   2.722   2.857   0.986  0.0911  0.5380  0.2905
  711SOL    HW1 2132   2.693   2.937   0.923  0.2113  0.0460  1.5210
  711SOL    HW2 2133   2.820   2.864   1.025 -1.3239  1.2773 -0.2627
  712SOL     OW 2134   1.314   2.198   1.912  0.1874 -0.5978  1.1025
  712SOL    HW1 2135   1.398   2.137   1.899  2.2063  0.0242  2.1741
  712SOL    HW2 2136   1.228   2.171   1.864  1.2276  0.9502 -1.3099
  713SOL     OW 2137   2.783   1.492   2.545  0.3889 -0.0651  0.4528
  713SOL    HW1 2138   2.790   1.391   2.541  2.2825  1.8661  0.1428
  713SOL    HW2 2139   2.711   1.526   2.609 -2.4568  3.2507  1.6040
  714SOL     OW 2140   2.687   0.431   2.344  0.4289  0.3237  0.7141
  714SOL    HW1 2141   2.631   0.401   2.425 -1.1365 -2.2143  0.1054
  714SOL    HW2 2142   2.650   0.411   2.253  2.4959 -0.2003  2.9114
  715SOL     OW 2143   1.586   2.178   1.201  0.2297 -0.8784 -0.0962
  715SOL    HW1 2144   1.488   2.219   1.188 -2.2532 -1.8098 -0.5912
  715SOL    HW2 2145   1.588   2.109   1.276 -1.3904  1.7871  0.0528
  716SOL     OW 2146   1.216   0.129   1.510 -0.0213 -0.1775  0.1779
  716SOL    HW1 2147   1.128   0.162   1.466  1.2704 -0.0040  1.3268
  716SOL    HW2 2148   1.295   0.187   1.484 -1.8739  2.2981  2.2966
  717SOL     OW 2149   1.163   0.600   1.624 -0.4801  0.1282  0.2951
  717SOL    HW1 2150   1.255   0.645   1.656  1.8061  1.9928 -0.1135
  717SOL    HW2 2151   1.167   0.565   1.525 -1.0779 -1.6859 -0.0755
  718SOL     OW 2152   0.691   0.905   0.965  0.1110  0.3953 -0.0378
  718SOL    HW1 2153   0.676   0.906   0.863 -2.1074 -0.1500  1.3779
  718SOL    HW2 2154   0.684   0.997   1.011  0.8410  1.0256  0.6179
  719SOL     OW 2155   0.736   1.760   2.294  0.2724 -0.2422  0.1102
  719SOL    HW1 2156   0.809   1.776   2.367 -0.1656  2.9825  0.4177
  719SOL    HW2 2157   0.655   1.699   2.318 -2.3347  1.7852  0.2439
  720SOL     OW 2158   2.207   1.220   0.281 -0.1845 -0.2982  0.8329
  720SOL    HW1 2159   2.269   1.148   0.235  2.1195 -1.2993  0.0165
  720SOL    HW2 2160   2.173   1.181   0.374  0.3738 -0.5979  1.1475
  721SOL     OW 2161   2.230   2.912   2.109 -0.1941  0.1893 -0.3849
  721SOL    HW1 2162   2.254   2.963   2.019  1.1826  0.4773  0.5501
  721SOL    HW2 2163   2.131   2.934   2.143 -1.5309  2.3664 -0.7992
  722SOL     OW 2164   2.337   1.716   0.590 -0.4280 -0.2708 -0.5802
  722SOL    HW1 2165   2.382   1.678   0.504  2.4207 -3.1149 -1.7205
  722SOL    HW2 2166   2.257   1.773   0.568  1.9663 -2.5242  1.0120
  723SOL     OW 2167   2.597   2.751   1.955  0.8963  0.1930 -0.4588
  723SOL    HW1 2168   2.639   2.830   2.007  2.0782  0.0308  0.9858
  723SOL    HW2 2169   2.503   2.715   1.989  0.0762  0.1095 -1.5283
  724SOL     OW 2170   0.364   2.499   2.464  0.0329 -0.2541  0.0637
  724SOL    HW1 2171   0.260   2.486   2.443 -0.9143 -4.0051  0.9086
  724SOL    HW2 2172   0.386   2.472   2.559 -2.8905  1.8721 -0.5559
  725SOL     OW 2173   2.403   2.814   1.517 -0.0629 -0.4897 -0.3059
  725SOL    HW1 2174   2.410   2.841   1.419  1.6182 -0.8777  0.4630
  725SOL    HW2 2175   2.397   2.707   1.524 -2.4906 -1.4253 -1.0304
  726SOL     OW 2176   2.461   2.334   0.765  0.1804  0.5001 -0.3372
  726SOL    HW1 2177   2.440   2.416   0.706 -1.9264 -0.6109 -1.1856
  726SOL    HW2 2178   2.451   2.245   0.708  1.7178 -0.7573  2.1630
  727SOL     OW 2179   0.118   3.070   0.122  0.1767 -0.5752  0.3693
  727SOL    HW1 2180   0.209   3.105   0.090  0.2675 -0.0971  1.0314
  727SOL    HW2 2181   0.086   2.992   0.066  4.1736 -0.6194 -1.7502
  728SOL     OW 2182   2.911   0.727   0.915 -0.2991  0.1178 -0.3764
  728SOL    HW1 2183   2.856   0.696   0.831  3.6701 -1.4369 -0.6492
  728SOL    HW2 2184   2.899   0.667   1.001  3.1233 -0.2317 -0.8092
  729SOL     OW 2185   0.009   2.490   0.775  0.1772 -0.0926  0.5681
  729SOL    HW1 2186   0.051   2.474   0.866 -0.9265 -0.0968  1.6811
  729SOL    HW2 2187   0.073   2.525   0.705 -0.4837 -0.6567  3.8946
  730SOL     OW 2188   2.596   0.752   0.945  0.0378  0.9357 -0.1829
  730SOL    HW1 2189   2.556   0.845   0.922 -0.0715 -2.4798  0.8111
  730SOL    HW2 2190   2.668   0.725   0.873 -3.9090 -0.5995 -0.3386
  731SOL     OW 2191   3.091   2.237   2.298  0.6713  0.1713 -0.0583
  731SOL    HW1 2192   3.019   2.184   2.350 -3.1978 -1.4640 -1.0316
  731SOL    HW2 2193   3.042   2.305   2.231  1.6101  1.7104 -2.7073
  732SOL     OW 2194   1.350   2.728   1.968  0.1519  0.5335 -0.1676
  732SOL    HW1 2195   1.384   2.661   2.040  2.1341  1.2125  1.9873
  732SOL    HW2 2196   1.293   2.672   1.900 -1.7752 -0.3715 -0.1017
  733SOL     OW 2197   3.080   0.660   2.232  0.3181 -0.1785  0.5468
  733SOL    HW1 2198   3.144   0.723   2.177  2.3970  0.3562 -0.5660
  733SOL    HW2 2199   3.045   0.580   2.171  0.0489  1.9556 -3.8277
  734SOL     OW 2200   1.526   0.413   2.717  0.5427 -0.3777 -0.3694
  734SOL    HW1 2201   1.504   0.515   2.715 -2.7587 -0.2478 -1.1685
  734SOL    HW2 2202   1.450   0.349   2.749  0.5183 -0.5481 -0.0631
  735SOL     OW 2203   2.867   2.683   2.305  0.3185  0.2854  0.2117
  735SOL    HW1 2204   2.836   2.667   2.206 -1.0360 -2.2450 -1.3086
  735SOL    HW2 2205   2.966   2.692   2.315 -3.3346 -1.2533  1.8492
  736SOL     OW 2206   0.881   0.413   2.517 -0.2310 -0.2327 -0.0458
  736SOL    HW1 2207   0.782   0.437   2.501  1.5758 -2.0743 -0.2522
  736SOL    HW2 2208   0.909   0.341   2.445 -1.1774 -0.0867 -1.1154
  737SOL     OW 2209   2.673   0.482   2.786  0.1437 -0.3546  0.2965
  737SOL    HW1 2210   2.639   0.442   2.877 -2.5530 -1.2454  2.1865
  737SOL    HW2 2211   2.777   0.476   2.768  2.2347  0.0094 -0.4557
  738SOL     OW 2212   1.779   1.238   2.856 -0.4441  0.0902 -0.3415
  738SOL    HW1 2213   1.876   1.222   2.818 -0.3445 -2.0263  0.4414
  738SOL    HW2 2214   1.709   1.173   2.819  0.1494  1.7477  0.4258
  739SOL     OW 2215   1.850   0.720   0.637 -0.1583  0.2104 -0.0581
  739SOL    HW1 2216   1.887   0.691   0.733 -1.6784  0.5793  2.9031
  739SOL    HW2 2217   1.816   0.637   0.587  1.8726 -1.6662 -2.6602
  740SOL     OW 2218   1.981   1.915   2.352 -0.1060  0.4168  0.1997
  740SOL    HW1 2219   2.038   1.834   2.389  0.4097  1.1270  0.7964
  740SOL    HW2 2220   1.948   1.904   2.254  2.1306  0.6164 -1.5711
  741SOL     OW 2221   2.539   0.134   2.440  0.2262 -0.0818 -0.0338
  741SOL    HW1 2222   2.641   0.114   2.416  1.2953 -0.0115  1.6721
  741SOL    HW2 2223   2.476   0.099   2.364  0.2065 -0.2925 -2.3457
  742SOL     OW 2224   2.198   1.475   0.184 -0.1695  0.6535 -0.5447
  742SOL    HW1 2225   2.122   1.536   0.215 -0.1300  0.8215  1.1891
  742SOL    HW2 2226   2.183   1.376   0.202  2.3882  3.0916 -1.5697
  743SOL     OW 2227   1.755   0.645   2.539 -0.5907  0.0864  0.4709
  743SOL    HW1 2228   1.733   0.565   2.477  0.2797 -0.1617 -0.0749
  743SOL    HW2 2229   1.672   0.709   2.547 -0.5717  1.8450 -0.1618
  744SOL     OW 2230   2.774   2.161   0.182  0.1448  0.2577 -0.0668
  744SOL    HW1 2231   2.719   2.185   0.269  0.0793 -1.2431  2.4158
  744SOL    HW2 2232   2.776   2.060   0.171 -0.9253  1.1645 -0.4172
  745SOL     OW 2233   2.224   2.504   2.238 -0.0412 -0.0980 -0.4421
  745SOL    HW1 2234   2.138   2.540   2.198 -0.0120 -0.1235  0.0618
  745SOL    HW2 2235   2.228   2.515   2.344 -3.4265  2.9008  0.7505
  746SOL     OW 2236   3.078   2.534   1.806 -0.3290 -0.4972  0.1918
  746SOL    HW1 2237   3.142   2.500   1.733  0.6243  4.9683 -0.7008
  746SOL    HW2 2238   3.088   2.637   1.824 -0.4907  0.3813  0.7411
  747SOL     OW 2239   3.085   1.800   1.688 -0.1239 -0.3620  0.3649
  747SOL    HW1 2240   3.042   1.709   1.671  3.1824  1.2282 -0.7522
  747SOL    HW2 2241   3.177   1.814   1.636 -0.3350  0.8654  1.1727
  748SOL     OW 2242   1.813   2.688   2.946 -0.1818  0.7467 -0.2436
  748SOL    HW1 2243   1.817   2.776   3.009 -0.4276 -0.9042  0.9129
  748SOL    HW2 2244   1.750   2.704   2.866  1.2884 -2.3892  1.7347
  749SOL     OW 2245   1.301   2.876   0.816  0.3605  0.1819 -0.4601
  749SOL    HW1 2246   1.204   2.908   0.790 -0.0056  0.7726 -0.3395
  749SOL    HW2 2247   1.380   2.947   0.800  0.1849 -0.4731 -1.0173
  750SOL     OW 2248   2.222   0.210   1.854  0.1681 -0.8907 -0.0357
  750SOL    HW1 2249   2.247   0.260   1.767  0.9641  1.0130  0.5533
  750SOL    HW2 2250   2.227   0.261   1.941 -0.1652 -1.0411  0.0105
  751SOL     OW 2251   0.837   2.081   2.892  0.1474  0.3084  0.0054
  751SOL    HW1 2252   0.928   2.057   2.935 -1.8851 -0.5152 -0.1783
  751SOL    HW2 2253   0.755   2.045   2.947 -1.1785  0.1882  0.4908
  752SOL     OW 2254   1.312   0.767   1.168 -0.0693  0.3107  0.3794
  752SOL    HW1 2255   1.401   0.816   1.200  2.6278  0.3843  2.0257
  752SOL    HW2 2256   1.319   0.663   1.184  1.0678  0.6247 -0.7324
  753SOL     OW 2257   0.992   2.542   1.869 -0.1729 -0.6765  0.6254
  753SOL    HW1 2258   1.095   2.556   1.854  1.7508 -3.8900  1.0840
  753SOL    HW2 2259   0.938   2.633   1.867  1.2125 -0.8411 -0.7093
  754SOL     OW 2260   1.126   1.240   3.002  0.4889 -0.0837 -0.2401
  754SOL    HW1 2261   1.207   1.178   2.979 -0.9477  1.0290  0.7122
  754SOL    HW2 2262   1.149   1.340   2.997 -1.8117  0.4608  0.3114
  755SOL     OW 2263   1.916   0.505   2.178  0.5257  0.1541  0.1641
  755SOL    HW1 2264   1.979   0.420   2.186  0.6554 -3.3667 -0.5412
  755SOL    HW2 2265   1.833   0.488   2.234 -0.8453  0.5956  1.2377
  756SOL     OW 2266   2.492   0.992   3.003  0.6235 -0.4725  0.1048
  756SOL    HW1 2267   2.588   0.951   2.997 -0.8184 -0.5979  2.1779
  756SOL    HW2 2268   2.423   0.929   3.047  3.1406  2.7450  1.0765
  757SOL     OW 2269   0.131   0.422   1.964  0.3338 -0.5498  0.3908
  757SOL    HW1 2270   0.165   0.328   1.946  0.2532  0.5672  0.8462
  757SOL    HW2 2271   0.045   0.411   2.022  0.3429 -3.3681  0.0988
  758SOL     OW 2272   2.350   0.074   1.412  0.6663  0.0887 -0.5274
  758SOL    HW1 2273   2.287   0.022   1.477 -0.1248 -0.3414  1.7543
  758SOL    HW2 2274   2.315   0.079   1.314 -2.0857  1.9179  1.1212
  759SOL     OW 2275   1.701   0.120   0.094  0.3860  0.5513 -0.8029
  759SOL    HW1 2276   1.676   0.117  -0.007 -0.9801  0.4711 -2.2897
  759SOL    HW2 2277   1.799   0.110   0.120  2.4103  2.7005 -0.9357
  760SOL     OW 2278   2.708   2.133   2.798 -0.5121  0.4628 -0.4792
  760SOL    HW1 2279   2.650   2.167   2.880 -2.8882  0.7871 -0.5378
  760SOL    HW2 2280   2.808   2.139   2.819 -1.4724  0.1714  0.8208
  761SOL     OW 2281   1.953   1.783   1.764 -0.0864 -0.4369  0.3298
  761SOL    HW1 2282   1.983   1.709   1.830 -0.8523  2.3330  1.6956
  761SOL    HW2 2283   1.935   1.743   1.669  1.1172  2.0085  4.0652
  762SOL     OW 2284   0.486   2.386   0.920 -0.1167  0.2418 -0.2515
  762SOL    HW1 2285   0.532   2.388   0.826  0.4042  0.3807 -0.1910
  762SOL    HW2 2286   0.551   2.426   0.994  0.3624  2.6706  0.5590
  763SOL     OW 2287   2.153   1.614   2.958 -0.5201 -0.0657  0.1365
  763SOL    HW1 2288   2.256   1.599   2.968  0.7667  1.1530 -0.6195
  763SOL    HW2 2289   2.093   1.542   2.997 -0.7913  0.4226 -0.6093
  764SOL     OW 2290   0.661   0.574   0.672 -1.4404 -0.1127 -0.3172
  764SOL    HW1 2291   0.569   0.529   0.667  3.6642  0.2259 -1.4518
  764SOL    HW2 2292   0.709   0.558   0.762 -3.0155 -1.2916  2.8778
  765SOL     OW 2293   0.810   0.231   0.730 -0.3122 -0.3707  0.1699
  765SOL    HW1 2294   0.817   0.196   0.635  2.0896  2.8971 -0.8768
  765SOL    HW2 2295   0.882   0.302   0.758  3.0907 -0.5286  0.7133
  766SOL     OW 2296   2.912   2.196   3.059  0.2586 -0.4371  0.1757
  766SOL    HW1 2297   2.853   2.182   3.141  2.3652 -1.2486 -1.5591
  766SOL    HW2 2298   2.955   2.292   3.066  0.8643  1.2219 -1.5616
  767SOL     OW 2299   2.831   1.626   0.489  0.2898  0.5034  0.3055
  767SOL    HW1 2300   2.808   1.704   0.552 -0.8335  1.9565 -1.9859
  767SOL    HW2 2301   2.932   1.613   0.471  0.0172  2.0914 -0.0278
  768SOL     OW 2302   1.017   0.237   0.216  0.4286  0.4196  0.1815
  768SOL    HW1 2303   0.991   0.284   0.305 -0.8391 -0.0511  0.1328
  768SOL    HW2 2304   1.107   0.191   0.219 -1.8990 -0.1181  1.7983
  769SOL     OW 2305   1.148   1.779   2.284 -0.0528  0.5368 -0.0828
  769SOL    HW1 2306   1.064   1.798   2.340  2.5484 -3.2700 -0.7616
  769SOL    HW2 2307   1.234   1.779   2.348 -0.5616 -1.7540  2.2362
  770SOL     OW 2308   0.172   1.158   2.280 -0.3218 -0.1516 -0.2589
  770SOL    HW1 2309   0.200   1.149   2.381 -1.5301 -1.9612 -1.1257
  770SOL    HW2 2310   0.074   1.141   2.268  2.0191 -0.1490 -0.5069
  771SOL     OW 2311   3.071   2.809   1.896 -0.0152 -0.4834  0.5242
  771SOL    HW1 2312   2.994   2.816   1.830 -0.0307 -0.8437  1.4105
  771SOL    HW2 2313   3.051   2.863   1.982 -2.8182  1.0557 -1.4221
  772SOL     OW 2314   2.326   0.215   2.854 -0.0436 -0.4812  0.3596
  772SOL    HW1 2315   2.382   0.145   2.802  0.0185  0.7556  1.5515
  772SOL    HW2 2316   2.385   0.263   2.924 -0.6967  3.7077 -0.4552
  773SOL     OW 2317   0.582   2.073   2.457 -0.1777 -0.7574 -0.2583
  773SOL    HW1 2318   0.552   2.161   2.405  0.7006 -2.1430 -0.0373
  773SOL    HW2 2319   0.543   2.064   2.554  0.8772  3.5502  0.0325
  774SOL     OW 2320   2.098   0.015   2.625 -0.3651 -0.8576  0.3487
  774SOL    HW1 2321   2.118   0.118   2.640 -0.6178 -0.8057 -0.9054
  774SOL    HW2 2322   2.170  -0.053   2.661 -1.9251 -0.3899 -1.4435
  775SOL     OW 2323   2.518   2.860   2.306  0.2611  0.1641  0.3488
  775SOL    HW1 2324   2.432   2.827   2.262  2.0982  0.0674 -0.2300
  775SOL    HW2 2325   2.505   2.891   2.406  4.0666 -1.6276  1.4913
  776SOL     OW 2326   0.007   1.238   0.185  0.2891  0.2827  0.0782
  776SOL    HW1 2327  -0.054   1.190   0.121  1.6762  0.3728  2.6876
  776SOL    HW2 2328  -0.034   1.255   0.279 -1.6178  0.9416 -3.7211
  777SOL     OW 2329   0.362   2.985   0.485  0.4096  0.0678  0.2464
  777SOL    HW1 2330   0.273   2.983   0.435  0.4150 -0.0249  1.5494
  777SOL    HW2 2331   0.420   2.901   0.481 -1.8742  0.8408  1.1461
  778SOL     OW 2332   1.318   1.981   0.238  0.0316  0.3860 -0.0963
  778SOL    HW1 2333   1.259   2.029   0.310 -0.8341 -2.2649  0.7162
  778SOL    HW2 2334   1.333   2.048   0.161 -2.1786  1.2724  1.8102
  779SOL     OW 2335   0.151   0.796   0.504 -0.1128  0.4973  0.0947
  779SOL    HW1 2336   0.096   0.720   0.460  0.1656 -0.0255  0.0315
  779SOL    HW2 2337   0.090   0.858   0.560  2.0121 -2.5953  1.9550
  780SOL     OW 2338   0.123   0.316   2.351 -0.5559  0.0723 -0.2017
  780SOL    HW1 2339   0.107   0.395   2.418  0.6395  0.2108  2.6651
  780SOL    HW2 2340   0.221   0.305   2.318 -0.0983  0.3913  0.1387
  781SOL     OW 2341   0.707   1.665   1.531 -0.3406 -0.2108 -0.0718
  781SOL    HW1 2342   0.764   1.603   1.593  0.1973  0.1676 -3.7341
  781SOL    HW2 2343   0.613   1.626   1.526 -0.8347 -1.5523  1.5725
  782SOL     OW 2344   2.633   3.088   0.880  0.1422  1.0869 -0.1481
  782SOL    HW1 2345   2.569   3.112   0.802  0.6152  0.5994  1.1328
  782SOL    HW2 2346   2.598   3.119   0.972  0.9914  2.5439  0.3671
  783SOL     OW 2347   2.713   0.687   2.433  0.1373 -0.0138 -0.1821
  783SOL    HW1 2348   2.711   0.693   2.537 -0.1034  1.0812 -2.0230
  783SOL    HW2 2349   2.708   0.589   2.398 -0.9310 -0.5641 -0.9679
  784SOL     OW 2350   1.425   2.157   0.044 -0.0688 -0.0125 -0.5487
  784SOL    HW1 2351   1.474   2.226   0.113  0.2279  0.6099  3.3177
  784SOL    HW2 2352   1.452   2.168  -0.056 -2.1496  1.5107  1.1750
  785SOL     OW 2353   2.112   0.285   0.040 -0.1544  0.2980  0.2065
  785SOL    HW1 2354   2.018   0.298   0.076 -0.5166 -0.2983  0.4094
  785SOL    HW2 2355   2.150   0.372  -0.007 -1.4353  1.8786 -0.5754
  786SOL     OW 2356   2.046   2.172   2.263 -0.2976 -0.1318  0.0021
  786SOL    HW1 2357   2.027   2.071   2.284 -1.6227  1.8832  4.5768
  786SOL    HW2 2358   2.148   2.191   2.266  0.0070  0.0330  1.8905
  787SOL     OW 2359   1.424   0.516   0.866 -0.0579  0.5515 -0.2183
  787SOL    HW1 2360   1.338   0.570   0.878 -3.2222  0.1804  2.1727
  787SOL    HW2 2361   1.462   0.501   0.769  0.4261 -1.9936  0.3806
  788SOL     OW 2362   1.234   0.441   0.007  0.1906 -0.6837 -0.7440
  788SOL    HW1 2363   1.153   0.404  -0.045 -0.5035 -0.5833  1.4391
  788SOL    HW2 2364   1.211   0.519   0.070 -2.2475  1.0730 -0.3430
  789SOL     OW 2365   2.579   0.093   1.986  0.8888  0.0856 -0.4417
  789SOL    HW1 2366   2.543   0.055   1.898  2.3840 -2.1512  3.0934
  789SOL    HW2 2367   2.607   0.023   2.053  0.0966  0.6999 -2.5529
  790SOL     OW 2368   2.593   2.809   0.704 -0.4281 -0.1130 -0.4105
  790SOL    HW1 2369   2.634   2.892   0.667 -0.1429 -1.4813  2.0096
  790SOL    HW2 2370   2.566   2.821   0.803 -2.7588 -1.1560 -0.4343
  791SOL     OW 2371   1.944   1.181   0.157 -0.0970 -0.3079 -0.3361
  791SOL    HW1 2372   1.858   1.126   0.187  1.1777 -0.7533  0.6798
  791SOL    HW2 2373   2.033   1.154   0.201 -1.4107  1.9877 -2.8714
  792SOL     OW 2374   0.481   1.922   2.229  0.0961 -0.2749 -0.3548
  792SOL    HW1 2375   0.518   1.973   2.310 -2.4511  3.2941  0.0013
  792SOL    HW2 2376   0.469   1.819   2.234  1.0520  1.6848 -1.7252
  793SOL     OW 2377   2.120   1.584   2.083  0.2877 -0.1199  0.3409
  793SOL    HW1 2378   2.175   1.667   2.058 -0.2335  3.3589  0.9290
  793SOL    HW2 2379   2.134   1.500   2.025 -0.6525 -0.8471 -0.0555
  794SOL     OW 2380   0.430   1.624   2.244  0.4940 -0.3240 -0.3378
  794SOL    HW1 2381   0.453   1.562   2.167 -0.4654 -0.7825 -0.6974
  794SOL    HW2 2382   0.382   1.563   2.313 -2.2224 -0.3144 -0.9102
  795SOL     OW 2383   2.486   2.236   1.805 -0.1544  0.4110 -0.4628
  795SOL    HW1 2384   2.522   2.231   1.903 -1.6736  1.0944  0.8508
  795SOL    HW2 2385   2.440   2.148   1.772  1.8486  0.7744 -0.8782
  796SOL     OW 2386   3.088   1.113   2.737 -0.1763  0.2006  0.0347
  796SOL    HW1 2387   2.981   1.106   2.743 -0.8970  1.8560 -2.3610
  796SOL    HW2 2388   3.129   1.119   2.835  0.4177 -0.6171 -0.3598
  797SOL     OW 2389   0.815   0.678   1.441  1.0195 -1.1360 -0.5008
  797SOL    HW1 2390   0.873   0.752   1.489  1.9648 -1.4674  0.9516
  797SOL    HW2 2391   0.744   0.727   1.382  0.8162 -0.3259  0.4948
  798SOL     OW 2392   1.366   0.488   1.169  0.8355  0.2057 -0.3777
  798SOL    HW1 2393   1.411   0.478   1.262 -0.0812  0.8597  1.2026
  798SOL    HW2 2394   1.407   0.428   1.097 -1.3920 -1.2285  1.5064
  799SOL     OW 2395   1.943   2.644   1.060  0.0485  1.0146 -0.8596
  799SOL    HW1 2396   1.863   2.581   1.090 -0.1313 -1.2952 -1.5913
  799SOL    HW2 2397   1.945   2.662   0.960 -0.7647 -1.5113  2.5031
  800SOL     OW 2398   3.050   0.625   1.823  0.6509 -0.1817  0.3674
  800SOL    HW1 2399   2.995   0.677   1.894 -0.7391 -0.7033  1.5497
  800SOL    HW2 2400   3.134   0.577   1.864  0.6398 -0.6833 -2.7267
  801SOL     OW 2401   1.875   2.183   0.174 -0.2218  0.3637 -0.1697
  801SOL    HW1 2402   1.807   2.124   0.121  0.2397 -0.8386  1.8498
  801SOL    HW2 2403   1.979   2.164   0.151  2.6152 -0.8395  0.1397
  802SOL     OW 2404   0.716   0.829   2.543 -0.1210  0.0023 -0.0591
  802SOL    HW1 2405   0.787   0.776   2.484 -1.8841 -0.3150 -0.2628
  802SOL    HW2 2406   0.631   0.772   2.545 -1.6132 -0.9982 -3.0372
  803SOL     OW 2407   0.876   0.167   0.994 -0.1136  0.6820  0.0754
  803SOL    HW1 2408   0.944   0.241   1.018 -0.9143  1.2636 -1.5376
  803SOL    HW2 2409   0.844   0.177   0.896 -1.0080  0.2094 -0.0108
  804SOL     OW 2410   0.371   3.076   2.081 -0.1709  0.7297 -0.5744
  804SOL    HW1 2411   0.297   3.142   2.045  0.7810  0.0200  0.3204
  804SOL    HW2 2412   0.358   2.978   2.042 -0.6345 -0.7511  2.9596
  805SOL     OW 2413   2.434   0.288   0.297  0.4642  0.4888 -0.3942
  805SOL    HW1 2414   2.532   0.321   0.300 -0.2756  1.0305 -1.2732
  805SOL    HW2 2415   2.396   0.246   0.203  0.9959 -4.1704  0.2090
  806SOL     OW 2416   0.719   2.395   1.680  0.6803 -0.4394 -0.2858
  806SOL    HW1 2417   0.717   2.493   1.704 -0.0968 -2.6111 -1.0598
  806SOL    HW2 2418   0.814   2.362   1.668 -2.8613  0.0982 -0.6296
  807SOL     OW 2419   2.491   0.933   0.450 -0.1537  0.2906 -0.3259
  807SOL    HW1 2420   2.570   0.868   0.462 -1.5517 -1.5119  0.5536
  807SOL    HW2 2421   2.473   0.958   0.350  1.8904 -2.2586 -0.5010
  808SOL     OW 2422   0.631   1.967   3.019  0.1409 -0.2381 -0.3655
  808SOL    HW1 2423   0.589   2.004   3.104 -2.1304  0.6272 -1.4431
  808SOL    HW2 2424   0.577   1.886   2.978 -0.4295 -1.3805 -0.2851
  809SOL     OW 2425   2.699   2.003   1.923 -0.3798  0.6890 -0.4528
  809SOL    HW1 2426   2.779   2.066   1.902 -1.2502  0.0679  1.4695
  809SOL    HW2 2427   2.676   1.949   1.837  0.0186 -0.5407 -0.5269
  810SOL     OW 2428   2.101   1.123   0.501  0.1111 -0.6143  0.3948
  810SOL    HW1 2429   2.147   1.096   0.592 -2.0114  1.6683  1.6211
  810SOL    HW2 2430   2.020   1.191   0.518  0.6631  0.4588 -4.1540
  811SOL     OW 2431   1.347   2.297   1.218 -0.3336  0.1615 -0.0013
  811SOL    HW1 2432   1.279   2.254   1.283 -0.1829  1.8272  1.1717
  811SOL    HW2 2433   1.298   2.308   1.127  1.2104 -0.1312 -0.4499
  812SOL     OW 2434   1.366   0.749   1.981  0.4028  0.7581  1.3841
  812SOL    HW1 2435   1.433   0.811   2.029  0.1785 -1.4880  1.5915
  812SOL    HW2 2436   1.280   0.788   1.940  1.5321  1.6417 -1.0198
  813SOL     OW 2437   1.719   2.015   2.468  0.5276  0.0432 -0.7282
  813SOL    HW1 2438   1.809   1.972   2.485 -0.3421  0.3642  0.8894
  813SOL    HW2 2439   1.708   2.065   2.371 -0.0470 -0.5758 -0.7116
  814SOL     OW 2440   2.865   1.628   2.922  0.0158 -0.5243 -0.3482
  814SOL    HW1 2441   2.963   1.630   2.952  2.0068 -0.7258 -2.5787
  814SOL    HW2 2442   2.837   1.706   2.855 -1.1084  1.3395 -1.9946
  815SOL     OW 2443   2.268   2.888   2.676 -0.7046 -0.0653 -1.0660
  815SOL    HW1 2444   2.218   2.860   2.764  0.9317 -0.3661  0.6320
  815SOL    HW2 2445   2.363   2.850   2.672  0.6452 -1.4402  1.7120
  816SOL     OW 2446   1.732   0.334   1.633 -0.2003 -0.8256  0.0392
  816SOL    HW1 2447   1.642   0.372   1.674  0.3301  1.9241 -0.1552
  816SOL    HW2 2448   1.775   0.269   1.698  0.5393  2.0555  0.7979
  817SOL     OW 2449   0.470   1.214   2.461  0.2289 -0.0291  0.5351
  817SOL    HW1 2450   0.432   1.311   2.437 -0.5824 -0.7077  1.2406
  817SOL    HW2 2451   0.528   1.171   2.390 -4.3061  0.4473  2.7719
  818SOL     OW 2452   2.037   0.822   0.444  0.1242  0.6826  0.2952
  818SOL    HW1 2453   2.047   0.924   0.455 -0.3747 -1.8597  0.0105
  818SOL    HW2 2454   1.973   0.782   0.519 -3.1893 -0.7539  0.3772
  819SOL     OW 2455   2.766   2.984   3.062  0.0457 -0.6710  0.1252
  819SOL    HW1 2456   2.835   2.931   3.006  0.0304  2.4894  1.2002
  819SOL    HW2 2457   2.666   2.971   3.025 -0.4036 -0.7213 -0.6284
  820SOL     OW 2458   1.203   1.105   0.564 -0.0305  0.0764 -0.5300
  820SOL    HW1 2459   1.245   1.180   0.627 -1.2709  1.8372 -1.3974
  820SOL    HW2 2460   1.182   1.014   0.612  2.7177  1.9624 -0.6456
  821SOL     OW 2461   3.088   1.324   0.642 -0.1256 -0.3422 -0.1932
  821SOL    HW1 2462   3.049   1.304   0.735  2.0435  1.4570  0.5551
  821SOL    HW2 2463   3.169   1.392   0.640  0.5447 -1.6270 -2.2931
  822SOL     OW 2464   2.556   1.769   2.483  0.4338  0.6006 -0.1986
  822SOL    HW1 2465   2.575   1.847   2.547 -0.4769 -2.5172  0.5848
  822SOL    HW2 2466   2.477   1.785   2.413 -2.9599 -1.2996  0.2135
  823SOL     OW 2467   2.001   0.861   1.185  0.2341 -0.5569 -0.4214
  823SOL    HW1 2468   1.978   0.881   1.287  2.8302 -0.6214  1.8297
  823SOL    HW2 2469   1.921   0.894   1.126  0.5350 -0.7137  0.6280
  824SOL     OW 2470   0.210   2.066   2.728  0.4812  0.3243  0.0489
  824SOL    HW1 2471   0.205   2.008   2.812  0.5913  0.8526  0.9329
  824SOL    HW2 2472   0.234   2.004   2.648 -0.7798 -2.2543 -0.1391
  825SOL     OW 2473   1.281   1.098   0.298 -0.1826  0.2513 -0.6484
  825SOL    HW1 2474   1.257   1.103   0.397 -0.4438  0.1394 -2.2366
  825SOL    HW2 2475   1.307   1.192   0.259 -1.0155  0.1364  0.0767
  826SOL     OW 2476   1.903   0.682   1.552 -0.0370 -0.1739 -0.1857
  826SOL    HW1 2477   1.982   0.623   1.587 -2.0013  0.7367 -2.4850
  826SOL    HW2 2478   1.841   0.630   1.484 -2.7821 -1.6979 -2.7731
  827SOL     OW 2479   0.786   1.403   0.237 -0.3899  0.0097  0.1043
  827SOL    HW1 2480   0.815   1.329   0.170 -1.2036  1.3898  2.5230
  827SOL    HW2 2481   0.705   1.367   0.295 -0.7152 -0.0310 -0.7986
  828SOL     OW 2482   2.574   0.060   1.595 -0.2417 -0.2845 -0.4892
  828SOL    HW1 2483   2.504   0.068   1.517  2.5993  0.4867 -0.3490
  828SOL    HW2 2484   2.583  -0.034   1.641 -3.1412 -0.3685  0.6756
  829SOL     OW 2485   2.742   2.514   3.002  0.4492  0.2296 -0.2219
  829SOL    HW1 2486   2.685   2.437   2.956  1.3403  0.0077 -0.7452
  829SOL    HW2 2487   2.717   2.538   3.100 -0.1572  1.1790 -0.6921
  830SOL     OW 2488   2.784   0.933   2.988 -0.4103 -0.0016  0.5639
  830SOL    HW1 2489   2.864   0.995   3.013  0.6552 -5.5854 -0.0270
  830SOL    HW2 2490   2.788   0.843   3.038 -1.4107 -1.4645  0.6351
  831SOL     OW 2491   0.010   0.593   0.379 -0.6526  0.0857  0.5015
  831SOL    HW1 2492  -0.044   0.541   0.450  0.2202  1.8900  3.2380
  831SOL    HW2 2493   0.009   0.554   0.281  3.0383  1.5218 -0.3403
  832SOL     OW 2494   1.798   0.736   3.068  1.4122 -0.2208  0.5196
  832SOL    HW1 2495   1.715   0.799   3.061 -1.1343  1.0652  1.4642
  832SOL    HW2 2496   1.775   0.634   3.046  0.2386 -1.6210 -0.9442
  833SOL     OW 2497   2.401   2.123   0.598  0.0266 -0.4067 -0.5612
  833SOL    HW1 2498   2.307   2.150   0.569  2.7605 -2.3695 -3.0051
  833SOL    HW2 2499   2.416   2.027   0.565 -1.8309  0.6306 -0.4545
  834SOL     OW 2500   0.024   0.222   0.711  0.1987 -0.2621 -0.2826
  834SOL    HW1 2501   0.059   0.147   0.771 -1.5356  1.9138  1.3421
  834SOL    HW2 2502   0.048   0.217   0.608  0.2274  1.3914 -0.0866
  835SOL     OW 2503   2.479   1.483   1.184 -0.0172  0.0080  0.2754
  835SOL    HW1 2504   2.562   1.530   1.229  0.3029 -2.4436  0.6353
  835SOL    HW2 2505   2.486   1.476   1.077 -2.7285  2.1304  0.1334
  836SOL     OW 2506   1.552   0.865   2.580  0.7065  0.1443  0.3261
  836SOL    HW1 2507   1.446   0.863   2.568  2.1988 -2.8749 -0.4735
  836SOL    HW2 2508   1.600   0.899   2.494 -0.5880  0.7343  2.1067
  837SOL     OW 2509   1.519   0.093   0.430  0.1846  0.2480 -0.3197
  837SOL    HW1 2510   1.517   0.198   0.426 -0.2434  0.8194  0.0822
  837SOL    HW2 2511   1.515   0.059   0.333 -0.8713  0.8104  0.6892
  838SOL     OW 2512   1.347   1.634   2.677 -0.3574 -0.1008  0.3193
  838SOL    HW1 2513   1.400   1.588   2.752 -2.1250  1.1916  0.4716
  838SOL    HW2 2514   1.255   1.589   2.656 -2.0888 -1.9047 -0.1534
  839SOL     OW 2515   1.632   0.236   0.966 -0.0005 -0.0183 -0.7504
  839SOL    HW1 2516   1.644   0.288   1.052 -1.0038 -1.2674 -0.5333
  839SOL    HW2 2517   1.648   0.134   0.981 -1.3442  0.0547  1.0604
  840SOL     OW 2518   2.563   2.911   1.724  0.4827  0.9019  0.8312
  840SOL    HW1 2519   2.521   2.848   1.651 -2.1070  0.5313 -1.1164
  840SOL    HW2 2520   2.558   2.860   1.816  1.0066  1.2193  0.6201
  841SOL     OW 2521   1.593   0.901   3.054  0.0797  0.3112  0.2084
  841SOL    HW1 2522   1.507   0.897   3.103  2.1220  1.4352 -3.5691
  841SOL    HW2 2523   1.580   0.953   2.964  0.4002  1.9419 -0.8669
  842SOL     OW 2524   0.798   1.491   0.890 -0.0562 -0.5773 -0.1213
  842SOL    HW1 2525   0.756   1.550   0.965  0.9212 -0.8473  1.1259
  842SOL    HW2 2526   0.739   1.406   0.867  0.0098 -1.9913  1.2435
  843SOL     OW 2527   0.137   3.062   1.408  0.5097 -0.1995  0.6743
  843SOL    HW1 2528   0.187   3.145   1.448  0.5109 -0.1448 -0.5362
  843SOL    HW2 2529   0.067   3.015   1.470  0.0494 -0.6460 -2.0052
  844SOL     OW 2530   0.794   2.461   0.233 -0.5981 -0.1940 -0.5397
  844SOL    HW1 2531   0.711   2.427   0.284  0.6532  1.5501 -2.4760
  844SOL    HW2 2532   0.772   2.546   0.177  1.8942 -1.8645  1.1427
  845SOL     OW 2533   1.673   2.849   1.279 -0.1833  0.1508 -0.0106
  845SOL    HW1 2534   1.700   2.748   1.267  1.3521 -1.5619  0.3335
  845SOL    HW2 2535   1.658   2.873   1.380  0.8780 -2.1990  2.6743
  846SOL     OW 2536   1.503   3.044   0.767 -0.0769  0.4176  0.5745
  846SOL    HW1 2537   1.461   3.137   0.760 -1.8786 -0.1547  0.8377
  846SOL    HW2 2538   1.539   3.007   0.679 -2.4945 -0.9569  1.0245
  847SOL     OW 2539   2.086   1.753   0.458  0.1497  0.5523  0.0485
  847SOL    HW1 2540   2.090   1.672   0.399  0.7848  0.8708  0.0459
  847SOL    HW2 2541   1.989   1.790   0.472 -1.5718 -1.2357  0.7914
  848SOL     OW 2542   2.409   0.878   2.623  0.0394  0.7379 -0.3812
  848SOL    HW1 2543   2.388   0.927   2.712 -1.1402 -0.8718  0.3468
  848SOL    HW2 2544   2.334   0.813   2.591 -3.1429 -3.0871  0.1644
  849SOL     OW 2545   2.555   0.925   2.383 -0.0038 -0.2647 -0.1320
  849SOL    HW1 2546   2.639   0.872   2.410  0.5667  2.0653  1.9028
  849SOL    HW2 2547   2.494   0.931   2.466 -1.6714  1.6930 -1.5149
  850SOL     OW 2548   1.576   0.028   1.353 -0.0482 -0.0835  0.5909
  850SOL    HW1 2549   1.582  -0.040   1.280  1.6978 -0.7998  4.4021
  850SOL    HW2 2550   1.522  -0.008   1.432  1.8995 -0.1191 -0.7019
  851SOL     OW 2551   0.574   1.699   0.747  0.0413  0.4261  0.1364
  851SOL    HW1 2552   0.659   1.749   0.779  0.1968  0.3453 -0.1361
  851SOL    HW2 2553   0.564   1.695   0.642  1.8258 -0.1493 -2.1607
  852SOL     OW 2554   0.837   2.082   1.659  0.1257  0.4817  0.1448
  852SOL    HW1 2555   0.799   2.153   1.595  1.4496  0.2121 -0.5124
  852SOL    HW2 2556   0.789   2.087   1.751  2.6887 -5.5411 -1.9723
  853SOL     OW 2557   2.529   1.545   2.642 -0.1324  0.1692 -0.4849
  853SOL    HW1 2558   2.464   1.463   2.622  1.0957 -0.4021  0.3617
  853SOL    HW2 2559   2.521   1.620   2.568 -1.4126  1.2981 -2.2197
  854SOL     OW 2560   2.427   1.427   1.765  0.1199 -0.6912 -0.2524
  854SOL    HW1 2561   2.492   1.387   1.692 -3.0756 -1.4484 -1.2021
  854SOL    HW2 2562   2.367   1.351   1.811 -2.4771 -3.3837  1.6850
  855SOL     OW 2563   2.070   2.377   1.131 -0.0977  0.1043 -0.3221
  855SOL    HW1 2564   2.023   2.467   1.114 -1.4052 -1.3024  2.3353
  855SOL    HW2 2565   2.155   2.393   1.190 -1.2284  0.2981 -0.2572
  856SOL     OW 2566   1.354   1.405   0.897 -0.5451  0.5012 -0.1577
  856SOL    HW1 2567   1.414   1.471   0.948 -0.3669 -2.4586  3.2528
  856SOL    HW2 2568   1.251   1.429   0.906 -0.2742  1.7383 -2.5846
  857SOL     OW 2569   0.046   2.708   1.040  0.8747 -0.5175 -0.2885
  857SOL    HW1 2570   0.062   2.748   0.948  2.0161 -2.6008  3.6392
  857SOL    HW2 2571   0.103   2.622   1.064 -2.0913 -2.3189  1.1351
  858SOL     OW 2572   2.376   2.031   1.645  0.1995  0.3635  0.4707
  858SOL    HW1 2573   2.299   1.966   1.611  1.3332 -1.0954 -0.7367
  858SOL    HW2 2574   2.467   1.985   1.640 -2.7351  1.0564  0.0221
  859SOL     OW 2575   2.413   0.584   1.091  0.0368 -0.6237 -0.4570
  859SOL    HW1 2576   2.478   0.637   1.032  2.3353  1.1518 -0.4829
  859SOL    HW2 2577   2.460   0.513   1.144 -0.4327 -0.8362 -2.0501
  860SOL     OW 2578   1.895   2.843   0.464 -0.2330  0.4173 -0.1608
  860SOL    HW1 2579   1.863   2.805   0.373  1.3883 -0.3184  0.8549
  860SOL    HW2 2580   1.945   2.933   0.442 -0.5708  0.2791 -2.2581
  861SOL     OW 2581   1.064   2.473   2.890  0.4700 -0.2851 -0.1978
  861SOL    HW1 2582   1.126   2.544   2.848  1.5882 -1.4731 -1.9200
  861SOL    HW2 2583   1.041   2.506   2.986  2.3820 -0.3922 -1.9087
  862SOL     OW 2584   2.809   2.524   1.722  0.1702  0.3109 -0.2853
  862SOL    HW1 2585   2.904   2.532   1.769 -1.7356 -1.6916  2.9935
  862SOL    HW2 2586   2.768   2.602   1.669 -1.0974 -1.6856  0.0512
  863SOL     OW 2587   1.819   2.720   0.224 -0.4226  0.2094 -0.1603
  863SOL    HW1 2588   1.862   2.622   0.247  0.6213 -0.9433  0.3721
  863SOL    HW2 2589   1.724   2.719   0.179 -0.1564 -0.1133 -1.0724
  864SOL     OW 2590   2.058   1.219   2.776  0.0080 -0.3515  0.0943
  864SOL    HW1 2591   2.022   1.149   2.702 -0.1818  0.1688 -0.5175
  864SOL    HW2 2592   2.162   1.223   2.774 -1.7520 -0.3300  1.1992
  865SOL     OW 2593   2.094   1.984   0.714  0.5745  0.0176 -0.3578
  865SOL    HW1 2594   2.183   1.945   0.750  0.8339 -2.8544 -0.5949
  865SOL    HW2 2595   2.007   1.953   0.767 -2.1323  1.0856 -2.4195
  866SOL     OW 2596   2.971   2.914   1.100  0.7140 -0.1434  0.4915
  866SOL    HW1 2597   2.962   2.981   1.017 -1.9344  3.8535 -2.7816
  866SOL    HW2 2598   3.035   2.835   1.088 -1.8223  1.0080 -0.2903
  867SOL     OW 2599   0.358   1.355   0.871  0.5622  0.0849  0.1569
  867SOL    HW1 2600   0.367   1.282   0.797 -0.7847  3.1584 -2.2263
  867SOL    HW2 2601   0.347   1.451   0.834 -1.2932 -1.5189 -0.7600
  868SOL     OW 2602   0.802   1.905   2.066  0.8099 -0.0140 -0.7120
  868SOL    HW1 2603   0.750   1.881   2.154 -0.7503 -0.1328  0.7762
  868SOL    HW2 2604   0.752   1.987   2.016  1.5529  1.7914 -2.2603
  869SOL     OW 2605   2.623   1.910   1.680 -0.0349  0.0094  0.6426
  869SOL    HW1 2606   2.685   1.977   1.628  2.1800 -0.2669  4.2825
  869SOL    HW2 2607   2.591   1.829   1.628  0.7710  2.6827  2.0682
  870SOL     OW 2608   2.375   2.665   1.166  0.1853  0.1675 -0.0407
  870SOL    HW1 2609   2.327   2.593   1.227  1.3817 -0.2616 -0.9300
  870SOL    HW2 2610   2.464   2.692   1.211 -0.3601  0.1100  0.6331
  871SOL     OW 2611   3.070   2.247   0.555  0.1889 -0.0590  0.6072
  871SOL    HW1 2612   3.014   2.240   0.643  4.0899  0.6637  0.5315
  871SOL    HW2 2613   3.011   2.219   0.475 -3.7578  0.7656  1.0642
  872SOL     OW 2614   2.075   0.520   1.668 -0.0535  0.4721 -0.1431
  872SOL    HW1 2615   2.043   0.511   1.768 -1.0783  2.6737  2.8643
  872SOL    HW2 2616   2.170   0.490   1.648 -0.7256 -0.2901  0.1314
  873SOL     OW 2617   1.748   2.033   3.095  0.0570  0.6489  0.2278
  873SOL    HW1 2618   1.656   1.986   3.094  2.7947  0.7279  1.2643
  873SOL    HW2 2619   1.763   2.100   3.015  0.0297  1.2352 -1.4117
  874SOL     OW 2620   0.648   2.479   0.707  0.5116 -0.2909  0.4610
  874SOL    HW1 2621   0.650   2.545   0.786  0.2093 -0.4684 -0.8872
  874SOL    HW2 2622   0.719   2.403   0.712  0.4004 -0.6050 -2.4017
  875SOL     OW 2623   2.377   1.571   1.419 -0.2597 -0.6275  0.0538
  875SOL    HW1 2624   2.470   1.596   1.460  1.7726  0.3313 -0.3025
  875SOL    HW2 2625   2.388   1.522   1.328  1.1856 -0.4496  0.1829
  876SOL     OW 2626   0.067   2.297   2.659 -0.4309 -0.2262 -0.2245
  876SOL    HW1 2627   0.121   2.210   2.682 -1.8558 -0.5547  1.5851
  876SOL    HW2 2628   0.115   2.386   2.685  2.2201  1.1320  0.6121
  877SOL     OW 2629   2.886   2.630   0.681 -0.0346  0.2295  0.3459
  877SOL    HW1 2630   2.895   2.731   0.697 -1.7808  3.0420  0.6597
  877SOL    HW2 2631   2.963   2.576   0.720 -1.4212  1.0024  0.8753
  878SOL     OW 2632   2.834   1.612   2.306  0.1084  0.1509  0.1538
  878SOL    HW1 2633   2.775   1.677   2.248  1.0117 -1.6475  4.7596
  878SOL    HW2 2634   2.802   1.605   2.407  1.1823  1.3144  0.7503
  879SOL     OW 2635   2.521   0.011   1.128 -0.6477  0.7118  0.8697
  879SOL    HW1 2636   2.546  -0.025   1.220 -0.4801  2.1844 -1.4436
  879SOL    HW2 2637   2.416   0.004   1.113 -0.0340  0.5036  0.4815
  880SOL     OW 2638   0.640   0.532   2.279 -0.4442 -0.1516 -0.0923
  880SOL    HW1 2639   0.593   0.484   2.359 -0.2753 -2.1741 -2.1373
  880SOL    HW2 2640   0.680   0.471   2.204 -0.4327  1.8619 -1.5724
  881SOL     OW 2641   0.828   0.101   0.506  0.5425 -0.0758  0.4725
  881SOL    HW1 2642   0.893   0.024   0.531  0.2637  0.3348 -1.3008
  881SOL    HW2 2643   0.735   0.065   0.470  0.0516  0.0766 -1.1975
  882SOL     OW 2644   2.771   1.614   1.756  0.5184 -0.0264  0.1570
  882SOL    HW1 2645   2.866   1.646   1.750  1.5835 -1.1043 -0.1208
  882SOL    HW2 2646   2.754   1.559   1.847 -2.8668 -3.7400  1.9656
  883SOL     OW 2647   0.846   0.538   0.878  0.2162 -0.5563 -0.7000
  883SOL    HW1 2648   0.886   0.630   0.907  2.4074  1.3329 -1.4861
  883SOL    HW2 2649   0.819   0.474   0.952 -2.4970 -0.4662  0.5413
  884SOL     OW 2650   1.192   1.743   1.061  0.4132  0.3498 -0.2513
  884SOL    HW1 2651   1.149   1.653   1.029  2.0508 -2.7779  1.8521
  884SOL    HW2 2652   1.183   1.817   0.995  0.2268 -2.0401  1.6220
  885SOL     OW 2653   2.360   1.854   2.295 -0.2208  0.3019  0.2240
  885SOL    HW1 2654   2.274   1.808   2.329 -0.0372  2.7816  0.4926
  885SOL    HW2 2655   2.357   1.957   2.304  2.3387  0.3491 -0.4105
  886SOL     OW 2656   2.577   0.391   1.753 -0.1558 -0.4235  0.0121
  886SOL    HW1 2657   2.611   0.313   1.803 -0.2844  3.7210 -0.1612
  886SOL    HW2 2658   2.653   0.462   1.743 -1.4228  3.2393 -3.0925
  887SOL     OW 2659   0.095   2.062   1.346  0.5034  0.4816  0.2281
  887SOL    HW1 2660   0.005   2.112   1.336 -2.3783  0.0959  1.7348
  887SOL    HW2 2661   0.167   2.110   1.296 -2.5979 -3.5143 -1.3480
  888SOL     OW 2662   0.608   1.198   1.563  0.4251 -0.0284  0.3275
  888SOL    HW1 2663   0.579   1.259   1.481 -3.4594 -2.2993  1.2605
  888SOL    HW2 2664   0.662   1.116   1.537 -1.4235 -0.6412 -0.4795
  889SOL     OW 2665   0.808   2.451   2.215 -0.4200 -0.0395  0.2405
  889SOL    HW1 2666   0.712   2.431   2.253 -2.4386  1.8120 -0.1100
  889SOL    HW2 2667   0.844   2.374   2.156  0.2223  0.7272 -1.9702
  890SOL     OW 2668   2.390   2.467   0.337  0.5151 -0.2112 -0.2272
  890SOL    HW1 2669   2.471   2.499   0.385 -2.5129  0.7045 -1.0515
  890SOL    HW2 2670   2.307   2.489   0.395 -0.6675  3.1927  0.5612
  891SOL     OW 2671   2.592   1.718   0.736 -0.4274 -0.5337 -0.0855
  891SOL    HW1 2672   2.642   1.641   0.794  0.5756  0.0389 -2.1186
  891SOL    HW2 2673   2.488   1.708   0.737 -1.3568 -2.4473  2.2368
  892SOL     OW 2674   0.381   0.265   2.233 -0.0475 -0.1306  0.2908
  892SOL    HW1 2675   0.444   0.241   2.308 -2.4463 -0.6690  1.5785
  892SOL    HW2 2676   0.428   0.279   2.143 -1.6129 -4.1736  1.1863
  893SOL     OW 2677   1.744   0.246   2.685  0.7497  0.0593  0.1127
  893SOL    HW1 2678   1.840   0.282   2.682  1.5318  2.1288 -0.5749
  893SOL    HW2 2679   1.684   0.327   2.690  3.1820 -0.4051  0.0337
  894SOL     OW 2680   2.139   2.106   0.124 -0.5439 -0.4737  0.2250
  894SOL    HW1 2681   2.129   2.040   0.049  0.5810  1.1887 -1.6801
  894SOL    HW2 2682   2.217   2.081   0.185 -0.4283 -0.3242 -2.0704
  895SOL     OW 2683   2.760   1.463   0.851 -0.1151 -0.3702 -0.1548
  895SOL    HW1 2684   2.844   1.406   0.867 -0.2754  0.9118 -2.2654
  895SOL    HW2 2685   2.753   1.552   0.905 -0.4913  0.3817 -0.5315
  896SOL     OW 2686   1.842   1.688   1.251  0.1317 -0.3061  0.1293
  896SOL    HW1 2687   1.941   1.671   1.275  0.8088  0.2251  1.0190
  896SOL    HW2 2688   1.806   1.631   1.170  0.1996 -0.0497  0.7890
  897SOL     OW 2689   0.277   0.521   2.996 -0.0930 -0.2106 -0.4318
  897SOL    HW1 2690   0.216   0.592   2.958  1.5294  1.2739 -0.7222
  897SOL    HW2 2691   0.367   0.555   3.025  0.0329  1.7585 -1.6822
  898SOL     OW 2692   0.663   2.849   1.107  0.1313  0.0192  0.1342
  898SOL    HW1 2693   0.735   2.921   1.114 -2.1156 -2.5301 -0.7054
  898SOL    HW2 2694   0.671   2.780   1.187  0.2999  0.4169 -0.8444
  899SOL     OW 2695   2.863   0.943   1.393  0.0521  0.1271  0.7238
  899SOL    HW1 2696   2.847   0.984   1.302  1.0919  0.6367  1.5718
  899SOL    HW2 2697   2.964   0.962   1.416  0.8714 -1.3807  1.8952
  900SOL     OW 2698   0.964   2.512   2.420  0.2423  0.4281 -0.1471
  900SOL    HW1 2699   0.910   2.475   2.337 -0.1758 -0.5884  1.1729
  900SOL    HW2 2700   0.903   2.539   2.502 -1.2667 -0.0428  0.5122
  901SOL     OW 2701   1.880   2.378   1.447  0.0098 -0.4778 -0.4632
  901SOL    HW1 2702   1.923   2.296   1.397  1.0703 -0.7110  1.4919
  901SOL    HW2 2703   1.948   2.452   1.467 -1.6585 -0.1648 -0.5850
  902SOL     OW 2704   2.630   1.671   1.515  0.0370  0.3824 -0.0173
  902SOL    HW1 2705   2.690   1.635   1.593  0.7276 -1.6701 -0.4317
  902SOL    HW2 2706   2.668   1.652   1.418 -0.4420 -0.1319  1.0577
  903SOL     OW 2707   0.284   2.353   2.000  0.3619  0.8326 -0.1042
  903SOL    HW1 2708   0.278   2.254   2.031  0.7495 -1.2532  1.2754
  903SOL    HW2 2709   0.255   2.369   1.905  0.9881 -1.9517  1.5565
  904SOL     OW 2710   1.966   0.798   2.460  0.2827  0.0852  0.6567
  904SOL    HW1 2711   1.880   0.746   2.494 -1.5302 -1.5498  1.4412
  904SOL    HW2 2712   1.995   0.767   2.365 -2.2017 -2.0675 -0.0062
  905SOL     OW 2713   2.819   0.115   2.404  0.2379  0.6072 -0.5069
  905SOL    HW1 2714   2.875   0.025   2.407 -1.5932  1.1071 -1.3137
  905SOL    HW2 2715   2.863   0.200   2.449  3.7084 -0.1274 -0.7676
  906SOL     OW 2716   0.161   1.723   1.893 -0.1688  0.8883 -0.3142
  906SOL    HW1 2717   0.110   1.741   1.803 -2.8519  0.4491 -1.3209
  906SOL    HW2 2718   0.206   1.809   1.937  2.4475  0.8184 -0.7486
  907SOL     OW 2719   0.251   2.489   0.978 -0.5047 -0.0472 -0.0747
  907SOL    HW1 2720   0.341   2.438   0.966  1.9499 -3.6563 -2.4454
  907SOL    HW2 2721   0.250   2.588   0.946 -1.9779  2.2266 -0.2052
  908SOL     OW 2722   2.873   2.949   0.393  0.2237 -0.6960 -0.2205
  908SOL    HW1 2723   2.806   3.002   0.329 -2.2179 -0.0669  0.3701
  908SOL    HW2 2724   2.908   2.864   0.349 -1.3965 -1.3076  0.0414
  909SOL     OW 2725   0.897   1.034   2.644 -0.3518  0.5070 -0.4009
  909SOL    HW1 2726   0.838   0.948   2.632 -2.2698  2.2533  0.5389
  909SOL    HW2 2727   0.944   1.061   2.557 -0.8506 -1.2249  0.1683
  910SOL     OW 2728   1.866   1.872   2.102 -0.0327  0.3498 -0.3570
  910SOL    HW1 2729   1.912   1.943   2.039 -1.2676 -0.0332  0.7582
  910SOL    HW2 2730   1.781   1.918   2.143  1.2569  0.5461 -0.0563
  911SOL     OW 2731   1.782   2.842   1.546 -0.2089  0.7546 -0.7040
  911SOL    HW1 2732   1.877   2.836   1.503 -0.9760  1.6625 -0.2242
  911SOL    HW2 2733   1.776   2.770   1.621 -1.3062 -1.7528 -1.8406
  912SOL     OW 2734   2.825   1.005   0.728 -0.2090  0.0733  0.2676
  912SOL    HW1 2735   2.820   0.998   0.832  0.3119  2.0531  1.9931
  912SOL    HW2 2736   2.776   1.091   0.697  0.9932 -3.6250  0.4421
  913SOL     OW 2737   2.592   1.294   1.594  0.0917  0.1501  0.3146
  913SOL    HW1 2738   2.618   1.197   1.595  3.4984  2.5151  2.3447
  913SOL    HW2 2739   2.635   1.349   1.517 -3.3599  0.5648  0.6673
  914SOL     OW 2740   2.905   0.567   1.139  0.0968  0.6124  0.2156
  914SOL    HW1 2741   2.892   0.465   1.130  0.9604  3.7625 -0.4605
  914SOL    HW2 2742   2.890   0.590   1.238  0.0439 -0.5303 -2.9025
  915SOL     OW 2743   1.195   0.666   0.931  0.8375 -0.3222  0.6549
  915SOL    HW1 2744   1.241   0.701   1.017  1.5919 -0.1913  1.9481
  915SOL    HW2 2745   1.091   0.679   0.939 -1.9324 -0.8282 -2.0038
  916SOL     OW 2746   0.581   0.090   0.672 -0.0302 -0.4713  0.3662
  916SOL    HW1 2747   0.665   0.153   0.692  1.1867  0.5622  0.8430
  916SOL    HW2 2748   0.504   0.137   0.617 -2.8449 -1.1247 -0.4345
  917SOL     OW 2749   2.850   2.644   2.035 -0.6769 -0.1185  0.0897
  917SOL    HW1 2750   2.753   2.642   1.992  0.0720  0.4978 -0.6544
  917SOL    HW2 2751   2.930   2.665   1.972 -1.8118 -0.6510 -1.3598
  918SOL     OW 2752   1.070   2.089   3.031 -0.3394 -0.2479 -0.0026
  918SOL    HW1 2753   1.077   2.185   3.071 -1.2651 -0.9159 -0.9783
  918SOL    HW2 2754   1.143   2.071   2.962  0.6964 -2.6373 -1.9116
  919SOL     OW 2755   0.771   1.686   2.761 -0.0918  0.4748 -0.4066
  919SOL    HW1 2756   0.851   1.750   2.783  1.0514 -0.9406  0.6065
  919SOL    HW2 2757   0.780   1.640   2.667 -1.5405 -1.4348  0.4083
  920SOL     OW 2758   1.360   1.803   2.457  0.2173 -0.2290  0.0913
  920SOL    HW1 2759   1.448   1.838   2.414 -1.1602 -2.1469 -1.0011
  920SOL    HW2 2760   1.378   1.738   2.538  0.9775 -2.5575 -0.8181
  921SOL     OW 2761   1.125   0.139   2.568 -0.1078  0.7838 -0.1294
  921SOL    HW1 2762   1.129   0.121   2.467 -0.5642  1.1017  3.9539
  921SOL    HW2 2763   1.027   0.145   2.602  1.7807  1.7041  1.5131
  922SOL     OW 2764   2.163   2.438   2.861 -0.1949  0.1644 -0.3943
  922SOL    HW1 2765   2.206   2.344   2.855  0.0065 -2.3996 -0.3774
  922SOL    HW2 2766   2.071   2.438   2.806 -0.4934 -0.2187 -0.9826
  923SOL     OW 2767   1.182   2.704   0.285 -0.2499 -0.1448  0.4512
  923SOL    HW1 2768   1.245   2.736   0.361  1.3425 -0.7053 -0.1367
  923SOL    HW2 2769   1.201   2.607   0.255  0.1764 -1.0131 -2.5956
  924SOL     OW 2770   2.915   1.683   0.133 -0.4297 -0.2910  0.1641
  924SOL    HW1 2771   2.829   1.652   0.079  0.5195 -0.3244  3.0857
  924SOL    HW2 2772   2.993   1.614   0.109  2.3556 -1.9344  0.2464
  925SOL     OW 2773   3.082   2.882   1.586  0.2527  0.3272  0.0589
  925SOL    HW1 2774   2.983   2.895   1.623 -0.2693  0.6303 -0.3154
  925SOL    HW2 2775   3.084   2.808   1.512  1.2458 -0.2404 -1.1561
  926SOL     OW 2776   1.239   2.721   1.330 -0.0277 -0.5393  0.7817
  926SOL    HW1 2777   1.247   2.756   1.232 -0.9849 -2.2924 -0.9073
  926SOL    HW2 2778   1.248   2.791   1.404 -0.1872 -1.5712 -0.1195
  927SOL     OW 2779   0.373   2.565   1.786  0.2052  0.2153  0.5331
  927SOL    HW1 2780   0.332   2.508   1.709 -2.8961 -0.6389 -0.2239
  927SOL    HW2 2781   0.374   2.668   1.774  2.4873 -1.9286  3.5859
  928SOL     OW 2782   1.671   2.062   2.181 -0.1780 -0.0301  0.3353
  928SOL    HW1 2783   1.714   2.143   2.139 -2.3658 -0.7507 -0.0045
  928SOL    HW2 2784   1.567   2.060   2.176  1.7912  1.6252  0.3203
  929SOL     OW 2785   2.437   2.514   2.918 -0.3914  0.0181 -0.4777
  929SOL    HW1 2786   2.335   2.516   2.914 -0.5638 -1.7021 -1.2308
  929SOL    HW2 2787   2.479   2.553   2.825  0.2588  1.2287 -1.1388
  930SOL     OW 2788   2.139   2.054   1.050 -0.7417  0.6161 -0.0351
  930SOL    HW1 2789   2.152   1.995   1.138  0.5389  0.7462 -0.3177
  930SOL    HW2 2790   2.184   2.144   1.062 -1.3574 -2.2572 -2.2312
  931SOL     OW 2791   0.470   1.604   2.637 -0.1293  0.7465 -0.2148
  931SOL    HW1 2792   0.471   1.651   2.729 -0.8997 -1.8181 -1.1217
  931SOL    HW2 2793   0.561   1.567   2.604 -0.6367 -0.0065 -2.1813
  932SOL     OW 2794   0.355   0.044   0.002  0.1067 -0.1836  0.5162
  932SOL    HW1 2795   0.398   0.132  -0.032 -1.5696 -1.8859  0.5723
  932SOL    HW2 2796   0.408  -0.042  -0.024 -3.6787 -1.5305 -1.7000
  933SOL     OW 2797   0.990   0.831   2.981  0.1630 -0.1290 -0.2251
  933SOL    HW1 2798   1.019   0.903   3.052 -0.3920  0.2986 -2.3179
  933SOL    HW2 2799   0.931   0.752   3.018 -0.5071  1.4837  1.5840
  934SOL     OW 2800   0.885   2.947   2.622 -0.0146 -0.6462 -0.1326
  934SOL    HW1 2801   0.863   2.884   2.548  1.9960  1.4602  0.1537
  934SOL    HW2 2802   0.954   2.908   2.694 -0.9253  1.4471  1.4854
  935SOL     OW 2803   0.037   0.641   0.738 -0.2844  0.4142 -0.1713
  935SOL    HW1 2804  -0.011   0.570   0.676  4.4385 -1.0275 -0.3681
  935SOL    HW2 2805  -0.021   0.662   0.824 -2.1939  2.3889  0.2984
  936SOL     OW 2806   1.103   2.900   0.078  0.1559  0.5803  0.3723
  936SOL    HW1 2807   1.195   2.920   0.031 -0.6914  0.1849  1.1065
  936SOL    HW2 2808   1.112   2.838   0.162 -2.4143 -0.5092  0.1235
  937SOL     OW 2809   2.016   2.609   2.101 -0.4047 -0.1633  0.5484
  937SOL    HW1 2810   1.952   2.646   2.176  0.3740 -0.9202 -2.8233
  937SOL    HW2 2811   2.023   2.676   2.020  0.4737 -0.5561 -1.1068
  938SOL     OW 2812   2.766   2.104   1.523  0.7971  0.5687 -0.8461
  938SOL    HW1 2813   2.726   2.195   1.555  0.9468 -0.7940  0.1212
  938SOL    HW2 2814   2.842   2.073   1.594 -0.0958  0.2003  3.7489
  939SOL     OW 2815   2.838   1.222   2.484  0.1267 -0.0706  0.5281
  939SOL    HW1 2816   2.910   1.207   2.408  4.7609 -0.7102 -2.6148
  939SOL    HW2 2817   2.836   1.151   2.565  0.1759 -1.2110  0.9238
  940SOL     OW 2818   1.068   0.419   2.731 -0.7280  0.1113 -0.0318
  940SOL    HW1 2819   1.162   0.376   2.750 -0.4899  1.2899 -0.8940
  940SOL    HW2 2820   1.020   0.385   2.647  0.8942 -3.4784  0.5325
  941SOL     OW 2821   0.093   2.802   2.299 -0.1690 -0.5346  0.2548
  941SOL    HW1 2822   0.141   2.715   2.271 -1.9363 -0.3111 -2.3823
  941SOL    HW2 2823   0.163   2.880   2.309 -0.7048  1.0023  1.5112
  942SOL     OW 2824   0.153   0.040   2.427  0.2480  0.7091 -0.2034
  942SOL    HW1 2825   0.184   0.045   2.527 -0.0487  0.7766  0.0645
  942SOL    HW2 2826   0.102   0.129   2.400  0.4460 -0.5874 -1.4227
  943SOL     OW 2827   2.139   1.673   2.367 -0.1505  0.0657  0.5982
  943SOL    HW1 2828   2.102   1.632   2.276  1.1271  0.6177 -2.5190
  943SOL    HW2 2829   2.161   1.607   2.440  0.9169 -0.1267 -0.3539
  944SOL     OW 2830   2.167   2.310   1.557  0.4332  0.2880 -0.3345
  944SOL    HW1 2831   2.193   2.304   1.654 -2.6615  0.1321 -1.4620
  944SOL    HW2 2832   2.141   2.214   1.523  0.5662  0.2059  1.4716
  945SOL     OW 2833   0.639   1.619   0.178  0.2566  0.6587  0.1064
  945SOL    HW1 2834   0.579   1.595   0.094 -0.2067  2.1296  1.1752
  945SOL    HW2 2835   0.709   1.545   0.194  0.0041 -2.0657  0.2753
  946SOL     OW 2836   0.359   0.988   2.595  0.0421  0.8263  0.4200
  946SOL    HW1 2837   0.330   0.934   2.510  0.4005  0.2747 -0.2525
  946SOL    HW2 2838   0.400   1.085   2.578  0.9447 -0.2140 -0.7859
  947SOL     OW 2839   1.493   0.538   3.027 -0.5577 -0.3697 -0.1258
  947SOL    HW1 2840   1.487   0.608   2.951 -0.9153  0.6959  3.0324
  947SOL    HW2 2841   1.399   0.498   3.053  2.0272 -0.4877  1.5899
  948SOL     OW 2842   1.930   2.955   2.131 -0.0506  0.1473 -0.2032
  948SOL    HW1 2843   1.921   2.913   2.039  3.4907  0.0592  0.6364
  948SOL    HW2 2844   1.920   2.884   2.207 -0.5783 -0.2234 -0.1623
  949SOL     OW 2845   0.582   2.521   0.431 -0.1002  0.1157  0.0473
  949SOL    HW1 2846   0.582   2.626   0.425 -0.0706 -1.4144  0.2895
  949SOL    HW2 2847   0.630   2.489   0.520 -0.1336  0.1609 -1.4295
  950SOL     OW 2848   0.232   2.239   2.956  1.0069  0.0624 -0.2727
  950SOL    HW1 2849   0.194   2.324   2.906 -2.3062  0.8344 -1.8964
  950SOL    HW2 2850   0.278   2.183   2.893 -2.4762  1.0802  1.9296
  951SOL     OW 2851   1.256   2.676   2.798 -0.3142 -0.5763 -0.2454
  951SOL    HW1 2852   1.326   2.617   2.850 -2.0567  0.2476 -0.3762
  951SOL    HW2 2853   1.298   2.723   2.714  1.2424  0.6052 -0.8593
  952SOL     OW 2854   0.030   1.615   0.423  0.2664 -0.8336 -0.6010
  952SOL    HW1 2855   0.071   1.707   0.437  1.1026 -1.3545  1.9836
  952SOL    HW2 2856   0.074   1.552   0.492 -2.7008  0.6662 -0.3917
  953SOL     OW 2857   2.468   1.749   0.313 -0.2945 -0.6125  0.1338
  953SOL    HW1 2858   2.456   1.650   0.343 -1.0401 -1.0791 -1.3708
  953SOL    HW2 2859   2.443   1.762   0.213  1.4699  0.9514 -0.9876
  954SOL     OW 2860   2.219   0.512   0.910  0.2390  0.1978  0.0227
  954SOL    HW1 2861   2.237   0.513   0.808 -0.7094  1.2881  1.2347
  954SOL    HW2 2862   2.299   0.547   0.964 -0.9030 -1.1680 -2.1623
  955SOL     OW 2863   0.156   2.612   1.386  0.2210 -0.4198  0.4629
  955SOL    HW1 2864   0.058   2.639   1.374 -0.6790 -0.7564 -2.6768
  955SOL    HW2 2865   0.213   2.694   1.359 -2.1684  0.0707 -1.4419
  956SOL     OW 2866   2.801   2.466   2.531  1.0961  0.1556 -0.0105
  956SOL    HW1 2867   2.832   2.367   2.510 -1.7430 -2.0126  0.4811
  956SOL    HW2 2868   2.794   2.521   2.444 -0.6648 -2.0739 -1.0692
  957SOL     OW 2869   1.653   2.041   2.750  0.1684  0.8717  0.8224
  957SOL    HW1 2870   1.675   1.959   2.806 -0.9035 -0.5984 -1.6862
  957SOL    HW2 2871   1.679   2.039   2.645 -1.5239  1.8976 -3.5274
  958SOL     OW 2872   2.594   2.227   3.023  0.5799  0.2459 -0.3051
  958SOL    HW1 2873   2.506   2.260   3.067  1.2843  1.3592 -1.2263
  958SOL    HW2 2874   2.664   2.198   3.094 -0.5779 -3.6491  1.5943
  959SOL     OW 2875   0.380   2.820   0.101  0.2756  0.2660 -0.8945
  959SOL    HW1 2876   0.276   2.821   0.079 -1.2797  0.7298 -1.4519
  959SOL    HW2 2877   0.412   2.728   0.138 -1.6958  0.4990  1.5504
  960SOL     OW 2878   1.929   0.528   1.910  0.9381 -0.3380  0.0221
  960SOL    HW1 2879   1.874   0.601   1.861 -1.1701 -0.1769 -1.0040
  960SOL    HW2 2880   1.924   0.532   2.014 -0.7243 -1.4266  0.4721
  961SOL     OW 2881   2.521   1.893   1.051  0.1125  0.6562  0.1991
  961SOL    HW1 2882   2.540   1.990   1.017 -1.6149 -2.1844  1.4712
  961SOL    HW2 2883   2.491   1.900   1.151  0.3558  0.7551  1.8946
  962SOL     OW 2884   1.328   0.924   0.054  0.1097 -0.2007 -0.4943
  962SOL    HW1 2885   1.309   0.954  -0.046 -2.0224 -1.0128 -2.6767
  962SOL    HW2 2886   1.290   0.982   0.126 -0.1920  0.5431 -0.0881
  963SOL     OW 2887   2.268   2.593   1.813 -0.1322  0.0062 -0.5189
  963SOL    HW1 2888   2.247   2.490   1.826  2.6666  0.2503 -1.9294
  963SOL    HW2 2889   2.290   2.646   1.899 -1.7804  0.8922 -1.1502
  964SOL     OW 2890   2.329   0.388   1.640 -0.1850  0.3696  0.6247
  964SOL    HW1 2891   2.414   0.376   1.691 -0.7126 -1.6569 -2.0786
  964SOL    HW2 2892   2.338   0.393   1.537 -1.7479 -0.6340  2.2776
  965SOL     OW 2893   2.667   3.045   0.215 -0.9229  0.1857  0.0240
  965SOL    HW1 2894   2.726   3.032   0.131  0.2580 -0.9201  1.1038
  965SOL    HW2 2895   2.586   3.102   0.193  0.2143  0.8999 -1.5930
  966SOL     OW 2896   2.516   2.499   2.262  0.0102  0.3519 -0.8048
  966SOL    HW1 2897   2.532   2.597   2.239  5.4680  0.1688  0.8318
  966SOL    HW2 2898   2.420   2.468   2.234  0.7643  0.1711 -0.7944
  967SOL     OW 2899   2.745   2.885   2.518  0.0435 -0.0684  0.3339
  967SOL    HW1 2900   2.736   2.809   2.448  1.9908 -1.3992  0.4943
  967SOL    HW2 2901   2.802   2.965   2.481  1.8889  2.5165  1.2554
  968SOL     OW 2902   1.927   1.059   2.568  0.1671  0.1011 -0.3843
  968SOL    HW1 2903   1.860   1.131   2.536  0.7596 -1.5716 -2.2123
  968SOL    HW2 2904   1.915   0.976   2.508 -1.0963 -0.8335 -0.5441
  969SOL     OW 2905   2.667   2.589   1.052  0.2105 -0.1907 -0.0500
  969SOL    HW1 2906   2.683   2.685   1.011  0.0985  2.4580 -1.3489
  969SOL    HW2 2907   2.677   2.512   0.984  0.1303 -0.0310 -0.1374
  970SOL     OW 2908   1.048   2.126   1.862  0.4175  0.9985  0.1792
  970SOL    HW1 2909   1.063   2.040   1.920  0.6467 -1.7361  0.3080
  970SOL    HW2 2910   1.001   2.113   1.772  0.6376 -1.3512 -0.5185
  971SOL     OW 2911   2.935   2.173   1.978  0.0427 -0.8377 -0.3299
  971SOL    HW1 2912   2.928   2.251   2.047  0.2507  2.6133 -0.3706
  971SOL    HW2 2913   2.966   2.201   1.881  1.6076 -0.6279  1.3822
  972SOL     OW 2914   1.876   2.456   0.266  0.5681  0.2363 -0.4942
  972SOL    HW1 2915   1.863   2.362   0.230  1.5850  2.8953  2.9827
  972SOL    HW2 2916   1.915   2.464   0.365  0.4829 -0.3531 -0.3221
  973SOL     OW 2917   1.127   0.884   1.896  0.2997 -0.0197 -0.3640
  973SOL    HW1 2918   1.093   0.788   1.872  0.8921 -1.8751  0.7211
  973SOL    HW2 2919   1.070   0.964   1.858 -2.3438  2.3245  2.5962
  974SOL     OW 2920   1.553   0.558   1.965 -0.1546  0.0409 -0.8098
  974SOL    HW1 2921   1.625   0.605   1.908 -0.1693 -0.9566  0.4385
  974SOL    HW2 2922   1.457   0.597   1.952 -0.2518 -1.4219  0.4455
  975SOL     OW 2923   2.393   3.010   0.035  0.3512  0.9369  0.0885
  975SOL    HW1 2924   2.314   2.948   0.056 -1.3661 -1.9860 -0.0369
  975SOL    HW2 2925   2.466   2.964  -0.030  2.7260 -0.1185  0.1366
  976SOL     OW 2926   1.935   2.740   2.334 -0.1854 -0.0994  0.1180
  976SOL    HW1 2927   1.850   2.723   2.390  1.3618  2.3276  1.8845
  976SOL    HW2 2928   2.010   2.784   2.387  1.8604 -1.1452 -0.6326
  977SOL     OW 2929   0.512   0.653   0.963  0.6651  0.7020 -0.5397
  977SOL    HW1 2930   0.419   0.642   0.918  2.4161  0.9995 -0.8451
  977SOL    HW2 2931   0.565   0.735   0.928  1.9586 -0.2049  0.6727
   3.10000   3.10000   3.10000
