1000 SPC/Fw water molecules
 3000
    1SOL     OW    1   1.537   3.417   0.308 -0.0310  0.0800  0.0816
    1SOL    HW1    2   1.490   3.507   0.293  0.7777  1.5355 -0.2869
    1SOL    HW2    3   1.490   3.366   0.385 -0.4966 -2.1725  1.8214
    2SOL     OW    4   1.810   0.854   1.780  0.2902 -0.4482 -0.3614
    2SOL    HW1    5   1.897   0.830   1.728 -1.0704 -2.1402 -0.4943
    2SOL    HW2    6   1.821   0.935   1.844  0.7228  3.1436 -1.5936
    3SOL     OW    7   0.772   0.096   2.840 -0.8380  0.6359 -0.8477
    3SOL    HW1    8   0.778   0.195   2.866  1.8633 -0.0798  0.2304
    3SOL    HW2    9   0.722   0.039   2.909  0.5004  0.7590 -0.0267
    4SOL     OW   10   1.889   2.022   3.511  0.4515  0.1409 -0.0340
    4SOL    HW1   11   1.929   2.113   3.481 -0.2550 -1.5293  2.2909
    4SOL    HW2   12   1.847   2.035   3.604  1.8100 -0.3064 -0.9003
    5SOL     OW   13   0.949   1.496   2.420  0.1014  0.1399  0.1970
    5SOL    HW1   14   0.965   1.395   2.437  0.2531 -0.8404 -0.0599
    5SOL    HW2   15   1.040   1.544   2.413  2.5753  0.8593  2.3236
    6SOL     OW   16   2.806   1.162   2.638  0.8701 -0.6614  0.2547
    6SOL    HW1   17   2.865   1.108   2.702 -1.1126  0.5906  3.4577
    6SOL    HW2   18   2.760   1.099   2.572 -0.2044  0.4396  2.9057
    7SOL     OW   19   0.006   1.046   1.585  0.0959  0.3515 -0.1171
    7SOL    HW1   20  -0.041   1.134   1.611  0.2688 -1.8095  0.1415
    7SOL    HW2   21   0.097   1.060   1.541  0.3960  3.3571 -0.6677
    8SOL     OW   22   2.681   3.017   2.347 -0.2413 -0.2085  0.0996
    8SOL    HW1   23   2.667   3.037   2.247 -0.2519 -2.4566  0.2936
    8SOL    HW2   24   2.693   3.104   2.401 -1.6532 -0.0392 -1.2296
    9SOL     OW   25   0.120   3.151   0.387 -0.4337  0.0349 -0.3080
    9SOL    HW1   26   0.056   3.111   0.456 -3.3723 -0.5744  0.4819
    9SOL    HW2   27   0.202   3.090   0.370  0.0995 -1.3985  0.1790
   10SOL     OW   28   0.104   2.889   2.963 -0.0836 -0.1813 -0.0571
   10SOL    HW1   29   0.148   2.973   2.922  1.3447 -1.2611 -3.6617
   10SOL    HW2   30   0.163   2.806   2.947  1.8214 -1.2509 -0.1792
   11SOL     OW   31   0.204   2.152   0.141 -0.4577  0.1909 -0.5765
   11SOL    HW1   32   0.280   2.082   0.148 -0.8810  1.9276 -1.5707
   11SOL    HW2   33   0.162   2.164   0.235  1.8338 -2.0429 -1.2063
   12SOL     OW   34   2.742   3.496   0.511  0.5230  0.9302 -0.0686
   12SOL    HW1   35   2.826   3.551   0.490  1.1758  0.3622 -0.1136
   12SOL    HW2   36   2.721   3.439   0.428  0.0344 -0.7611 -0.1582
   13SOL     OW   37   0.296   0.534   3.082  0.8793 -0.2064 -0.1168
   13SOL    HW1   38   0.214   0.471   3.077 -1.6636 -2.5894 -1.4019
   13SOL    HW2   39   0.263   0.631   3.078  0.9129  0.6553  1.2808
   14SOL     OW   40   1.568   0.857   1.625  0.0010  0.2020 -0.3590
   14SOL    HW1   41   1.652   0.850   1.683  0.5530  1.6346 -0.3812
   14SOL    HW2   42   1.593   0.841   1.527 -0.2610  0.1389 -3.4138
   15SOL     OW   43   0.756   1.633   2.604  0.7028 -0.1568  0.0562
   15SOL    HW1   44   0.702   1.702   2.550 -0.7132 -0.1816  0.7257
   15SOL    HW2   45   0.831   1.595   2.545  3.5390 -0.8432  0.8391
   16SOL     OW   46   2.109   1.009   3.283  0.1668  0.1140  0.6033
   16SOL    HW1   47   2.008   1.018   3.298 -1.8465 -1.1291  0.3228
   16SOL    HW2   48   2.128   1.013   3.180  0.3029  1.2039  1.1513
   17SOL     OW   49   0.164   2.849   2.467  0.4104  0.2863 -0.1902
   17SOL    HW1   50   0.125   2.929   2.518  0.0484 -0.8227  0.3318
   17SOL    HW2   51   0.096   2.813   2.400 -1.2769  3.8106 -0.4216
   18SOL     OW   52   1.755   1.402   1.008 -0.3999 -0.1401  0.3860
   18SOL    HW1   53   1.795   1.310   0.982  1.4220  0.2604  2.0618
   18SOL    HW2   54   1.656   1.411   0.979 -1.0006 -0.2865  1.8252
   19SOL     OW   55   0.162   1.288   1.982  0.0228  0.3631  0.1071
   19SOL    HW1   56   0.238   1.344   1.941  0.3916 -0.0801  1.0901
   19SOL    HW2   57   0.201   1.239   2.066  1.2590 -1.8359 -0.4660
   20SOL     OW   58   2.127   2.447   3.134  0.4316 -0.3262  0.5282
   20SOL    HW1   59   2.100   2.533   3.084  1.1704  1.0120 -2.7710
   20SOL    HW2   60   2.165   2.461   3.229 -1.8307  1.3495 -1.0373
   21SOL     OW   61   1.981   1.923   1.221 -0.1318  0.1413  0.0445
   21SOL    HW1   62   2.052   1.988   1.259  0.4525 -2.2685  2.1956
   21SOL    HW2   63   2.009   1.826   1.239  3.2588  2.3856  0.1807
   22SOL     OW   64   2.322   2.660   1.655 -0.3992  0.3992  0.5366
   22SOL    HW1   65   2.233   2.612   1.676 -0.6862 -0.0580 -0.8916
   22SOL    HW2   66   2.313   2.716   1.568 -0.9910 -0.0675  2.2724
   23SOL     OW   67   3.119   1.285   1.555  0.8664  0.4479 -0.3272
   23SOL    HW1   68   3.146   1.190   1.580  3.4863  1.0196 -1.2274
   23SOL    HW2   69   3.080   1.288   1.459 -2.9903  0.8754 -1.0297
   24SOL     OW   70   2.369   1.709   1.998  0.0570  0.2148  0.1027
   24SOL    HW1   71   2.306   1.783   2.030 -1.7360 -0.2781  1.9476
   24SOL    HW2   72   2.436   1.684   2.073 -1.8096  0.0836  0.0368
   25SOL     OW   73   2.057   3.438   3.039 -0.4665  0.2462 -0.0893
   25SOL    HW1   74   2.127   3.514   3.051 -1.4855 -0.4417 -0.0725
   25SOL    HW2   75   1.998   3.458   2.958 -5.2136  3.1307  2.8246
   26SOL     OW   76   0.434   3.164   0.754 -0.6499  0.2307  0.0910
   26SOL    HW1   77   0.520   3.197   0.800  1.6344 -1.2381  3.2371
   26SOL    HW2   78   0.453   3.088   0.685  0.2209 -0.0219  0.2610
   27SOL     OW   79   1.416   1.450   0.888  0.3220 -0.2456 -0.2410
   27SOL    HW1   80   1.407   1.403   0.979  1.7872 -0.2547 -2.7779
   27SOL    HW2   81   1.327   1.488   0.856 -1.6861 -1.8590  0.4617
   28SOL     OW   82   2.268   2.813   1.402  0.0798  0.3343  0.1950
   28SOL    HW1   83   2.346   2.820   1.333  1.6036 -2.0599 -0.3033
   28SOL    HW2   84   2.172   2.805   1.359  0.6143 -1.2876 -1.5489
   29SOL     OW   85   2.559   3.276   2.739 -0.2127 -0.0738  0.3066
   29SOL    HW1   86   2.641   3.249   2.795 -2.1010  2.7452  0.1449
   29SOL    HW2   87   2.474   3.243   2.788 -0.6573 -1.6911  0.6546
   30SOL     OW   88   0.111   3.246   2.196 -0.1804  0.1024 -0.4971
   30SOL    HW1   89   0.013   3.219   2.210 -0.9501 -0.3165  1.7647
   30SOL    HW2   90   0.126   3.334   2.248  0.9548 -0.3713 -2.1503
   31SOL     OW   91   3.496   2.110   2.784 -0.0366  0.1434 -0.1290
   31SOL    HW1   92   3.566   2.157   2.843 -0.8899 -2.6656  1.3498
   31SOL    HW2   93   3.536   2.074   2.696 -1.2249  2.4657 -0.5439
   32SOL     OW   94   1.211   2.909   2.636 -0.5247 -0.3038 -0.2265
   32SOL    HW1   95   1.134   2.893   2.702  0.3999  0.3381  0.1508
   32SOL    HW2   96   1.300   2.877   2.674 -0.5615  1.1854 -0.0509
   33SOL     OW   97   0.027   0.595   0.019 -0.2246  0.0231 -0.3121
   33SOL    HW1   98   0.048   0.690  -0.013 -0.0666  1.4768 -1.1296
   33SOL    HW2   99   0.109   0.536   0.006  1.3579 -0.8069 -0.8661
   34SOL     OW  100   3.216   0.197   0.099  0.1480 -0.2307  0.2637
   34SOL    HW1  101   3.291   0.144   0.144  1.5544  4.0516 -0.4529
   34SOL    HW2  102   3.147   0.138   0.050 -1.8673  0.3891 -0.5853
   35SOL     OW  103   3.355   3.214   1.946  0.3123  0.4738  0.5070
   35SOL    HW1  104   3.394   3.186   2.037 -1.2385 -2.4775  3.2789
   35SOL    HW2  105   3.397   3.305   1.917  1.1515  1.2315  1.7638
   36SOL     OW  106   2.684   3.603   3.167 -0.0448  0.4711 -0.0837
   36SOL    HW1  107   2.598   3.551   3.186  2.5455 -4.4470 -1.6666
   36SOL    HW2  108   2.756   3.533   3.143  1.6278 -1.1113 -2.8389
   37SOL     OW  109   2.110   3.025   0.099  0.0026  0.8271  0.1646
   37SOL    HW1  110   2.091   3.005   0.001  3.2354 -1.8035 -0.6282
   37SOL    HW2  111   2.038   3.083   0.146 -4.8910 -0.5463 -2.6244
   38SOL     OW  112   0.543   0.206   0.819  0.3864  0.2797  1.1353
   38SOL    HW1  113   0.505   0.292   0.774  0.4312 -3.3967 -2.5513
   38SOL    HW2  114   0.606   0.160   0.750 -0.4625 -1.0827  0.5055
   39SOL     OW  115   1.298   2.147   2.530  0.1028 -0.0560 -0.1533
   39SOL    HW1  116   1.218   2.149   2.595  1.1176  0.4223  0.8649
   39SOL    HW2  117   1.339   2.240   2.510  1.7601 -1.1190 -0.7829
   40SOL     OW  118   3.625   1.144   0.223 -0.1384  0.0203  0.6863
   40SOL    HW1  119   3.537   1.173   0.270 -1.9114  2.3926 -0.2727
   40SOL    HW2  120   3.663   1.218   0.163 -0.4844 -0.7539  2.0285
   41SOL     OW  121   1.934   0.067   2.509 -0.0747 -0.6218 -0.7415
   41SOL    HW1  122   1.846   0.115   2.535 -0.6356 -0.7374  1.1722
   41SOL    HW2  123   1.918   0.004   2.428  1.3840 -1.6422 -3.3958
   42SOL     OW  124   2.876   0.145   1.296 -0.2792  0.2709  0.2354
   42SOL    HW1  125   2.973   0.149   1.259  0.0194 -2.0760 -2.3392
   42SOL    HW2  126   2.860   0.055   1.344 -0.6975 -0.2564  0.1683
   43SOL     OW  127   1.821   0.289   1.395  0.1454 -0.3663  0.4345
   43SOL    HW1  128   1.878   0.267   1.479 -0.4146 -2.2267  2.4639
   43SOL    HW2  129   1.839   0.219   1.320  1.6924 -3.9200 -1.0394
   44SOL     OW  130   0.354   1.043   3.583 -0.3038 -0.5197 -0.0137
   44SOL    HW1  131   0.440   0.989   3.571  0.8781 -1.9024 -1.7013
   44SOL    HW2  132   0.357   1.108   3.662  0.4784 -1.0518  1.1209
   45SOL     OW  133   0.749   1.782   2.028  0.1350 -0.2031  0.3652
   45SOL    HW1  134   0.782   1.769   1.931  1.0616 -1.1018 -3.0028
   45SOL    HW2  135   0.746   1.696   2.082 -3.1018 -0.8421 -1.2130
   46SOL     OW  136   2.628   2.669   2.013  0.1928 -0.1234 -0.0062
   46SOL    HW1  137   2.583   2.582   2.051  0.9166 -2.6533 -0.8050
   46SOL    HW2  138   2.731   2.678   2.026  0.2149  0.5333  1.4581
   47SOL     OW  139   0.434   2.149   1.675  0.4524 -0.0959 -0.7438
   47SOL    HW1  140   0.438   2.174   1.574  1.5376 -0.3267 -1.9123
   47SOL    HW2  141   0.389   2.220   1.734 -0.3013  1.0870  0.7767
   48SOL     OW  142   1.288   3.265   3.162  0.3109  0.2309 -0.1713
   48SOL    HW1  143   1.261   3.187   3.099  0.1627 -1.1147  0.0322
   48SOL    HW2  144   1.205   3.310   3.199  1.2501  0.9599 -1.7107
   49SOL     OW  145   3.225   1.968   2.222  0.3587 -0.2045  0.2806
   49SOL    HW1  146   3.189   2.021   2.141 -0.1496 -0.8126 -2.3937
   49SOL    HW2  147   3.221   1.866   2.206  1.9643 -0.9888 -0.6034
   50SOL     OW  148   1.072   3.393   0.413 -0.1084 -0.1129  0.3566
   50SOL    HW1  149   1.135   3.414   0.492 -2.4659 -1.2014  1.0419
   50SOL    HW2  150   1.043   3.485   0.372  0.2113 -1.0160  1.3716
   51SOL     OW  151   1.351   0.217   1.070  0.1787 -0.2682  0.5690
   51SOL    HW1  152   1.402   0.250   0.988  2.3540 -0.8175 -0.9309
   51SOL    HW2  153   1.391   0.129   1.104 -0.4210  0.2714  1.4772
   52SOL     OW  154   0.186   0.969   0.750  0.1693  0.1692  0.4943
   52SOL    HW1  155   0.144   0.957   0.656 -0.5151 -2.5512 -2.9100
   52SOL    HW2  156   0.243   1.054   0.750 -0.0775  0.8612  0.8845
   53SOL     OW  157   1.173   0.203   3.304  0.4017 -0.1697  0.2956
   53SOL    HW1  158   1.246   0.155   3.358 -1.1007  0.8818 -0.0946
   53SOL    HW2  159   1.133   0.139   3.235  0.8728  2.5810  0.6434
   54SOL     OW  160   2.495   0.585   2.523 -0.1903  0.0719 -0.2019
   54SOL    HW1  161   2.530   0.592   2.619  1.9113 -0.7630 -0.2520
   54SOL    HW2  162   2.461   0.489   2.506  0.2454  0.5842  2.3423
   55SOL     OW  163   2.973   0.016   0.435  0.5402 -0.3657  0.0023
   55SOL    HW1  164   3.049  -0.012   0.500  1.4340  0.9481  1.4503
   55SOL    HW2  165   3.007   0.011   0.337  2.5829 -1.6949 -2.8913
   56SOL     OW  166   0.943   0.429   2.616  0.2549  0.2405 -0.0872
   56SOL    HW1  167   0.870   0.419   2.546 -3.0847 -1.1171 -3.0591
   56SOL    HW2  168   1.001   0.344   2.616  0.5685 -0.1236  1.2872
   57SOL     OW  169   2.035   1.166   2.720  0.2556  0.4627  0.6069
   57SOL    HW1  170   2.003   1.264   2.721 -0.4745  1.5308  2.2795
   57SOL    HW2  171   2.092   1.149   2.636  4.6869  0.0646 -3.3958
   58SOL     OW  172   0.284   1.034   2.300 -0.6970  0.2254 -0.5470
   58SOL    HW1  173   0.323   1.120   2.340 -1.9873  1.3921 -0.8419
   58SOL    HW2  174   0.270   0.969   2.380  0.3463 -1.9688  2.9757
   59SOL     OW  175   1.028   3.177   2.227  0.0252 -0.3597  0.0441
   59SOL    HW1  176   0.929   3.170   2.256  1.0122 -1.3592 -0.4354
   59SOL    HW2  177   1.084   3.169   2.313 -3.2487 -2.9525 -0.6285
   60SOL     OW  178   2.558   3.073   0.366 -0.2797 -0.1648 -0.1003
   60SOL    HW1  179   2.476   3.093   0.424 -1.6403 -0.3093 -1.8407
   60SOL    HW2  180   2.567   2.974   0.338  1.0358  3.9281  0.4817
   61SOL     OW  181   1.707   3.120   0.425  0.4762 -0.6929  0.2091
   61SOL    HW1  182   1.621   3.163   0.462  0.4577 -1.7781  0.1146
   61SOL    HW2  183   1.721   3.023   0.456  1.8410  2.6782 -0.5467
   62SOL     OW  184   2.604   3.056   3.505  0.3826  0.2280  0.5013
   62SOL    HW1  185   2.622   2.956   3.518  2.4340 -1.2860  0.8165
   62SOL    HW2  186   2.535   3.087   3.575 -1.1694  0.0981 -1.0889
   63SOL     OW  187   3.075   1.102   0.724  0.4758 -0.3590 -0.0938
   63SOL    HW1  188   3.062   1.084   0.623 -1.4300 -1.6241 -1.4709
   63SOL    HW2  189   3.175   1.088   0.750  2.4202 -0.6351 -2.4578
   64SOL     OW  190   1.872   1.187   0.093  0.3482 -0.3872  0.1054
   64SOL    HW1  191   1.884   1.285   0.118  0.0615  1.5929 -0.2573
   64SOL    HW2  192   1.772   1.162   0.093  0.3756  1.6831  0.9000
   65SOL     OW  193   0.515   2.887   2.014  0.3752 -0.3447 -0.5602
   65SOL    HW1  194   0.496   2.946   1.929 -1.5689 -0.8210  0.8253
   65SOL    HW2  195   0.458   2.927   2.090  0.1926 -0.6920 -0.4606
   66SOL     OW  196   1.185   1.501   1.535  0.0278 -0.2046 -0.0452
   66SOL    HW1  197   1.216   1.404   1.529 -0.2235 -2.2768 -1.6771
   66SOL    HW2  198   1.194   1.550   1.444 -1.0767 -1.5667 -0.6687
   67SOL     OW  199   2.937   2.213   2.310  0.1223 -0.0106  0.0986
   67SOL    HW1  200   3.005   2.200   2.232 -1.8810  2.1893 -1.3035
   67SOL    HW2  201   2.938   2.137   2.379  1.2643 -1.7049 -1.9264
   68SOL     OW  202   1.405   2.020   2.064 -0.9178  0.3685 -0.1502
   68SOL    HW1  203   1.402   1.951   1.989  1.7081  3.1073  0.5080
   68SOL    HW2  204   1.352   1.991   2.147  0.7620 -2.8874 -1.0220
   69SOL     OW  205   3.167   0.479   0.090 -0.4351 -0.3731 -0.0400
   69SOL    HW1  206   3.077   0.489   0.038 -0.1296  0.6473 -1.0261
   69SOL    HW2  207   3.190   0.379   0.104  0.7623  1.0002  0.9405
   70SOL     OW  208   2.568   1.360   2.661  0.4333  0.3991 -0.1855
   70SOL    HW1  209   2.650   1.298   2.658  0.8277  3.2908  2.0918
   70SOL    HW2  210   2.517   1.343   2.749  1.1022  1.0470  1.3141
   71SOL     OW  211   1.234   2.490   0.811  0.9220  0.1393 -0.4317
   71SOL    HW1  212   1.301   2.448   0.745 -0.8223  1.3782  1.6724
   71SOL    HW2  213   1.282   2.562   0.867 -0.5179 -1.4254 -0.3900
   72SOL     OW  214   2.650   2.075   0.725 -0.5936  0.6539 -0.3014
   72SOL    HW1  215   2.717   2.153   0.731  0.1241  0.6343 -1.9360
   72SOL    HW2  216   2.595   2.062   0.810  0.2185  1.0913 -1.6704
   73SOL     OW  217   1.262   1.084   0.650  0.9112 -0.2670  0.3740
   73SOL    HW1  218   1.189   1.137   0.697  0.0163 -0.7371 -0.6226
   73SOL    HW2  219   1.222   1.011   0.591 -1.9452 -1.0470 -4.2680
   74SOL     OW  220   3.119   2.505   2.581  0.2969  0.1254 -0.0552
   74SOL    HW1  221   3.145   2.406   2.603 -0.6400 -1.3081 -1.8327
   74SOL    HW2  222   3.133   2.533   2.483  1.9149  0.8790  0.8083
   75SOL     OW  223   1.986   1.940   2.314  0.2194  0.2990 -0.4087
   75SOL    HW1  224   1.891   1.910   2.289  0.7281  0.9381  2.3933
   75SOL    HW2  225   2.021   1.882   2.391 -0.7755 -1.6509  0.7933
   76SOL     OW  226   1.448   1.835   1.329  0.4846 -0.0293  0.1070
   76SOL    HW1  227   1.368   1.788   1.281  2.0485 -0.2704  0.2958
   76SOL    HW2  228   1.495   1.900   1.262  0.9520  0.5355 -2.5586
   77SOL     OW  229   2.769   1.050   2.003 -0.2365  0.2692 -0.5452
   77SOL    HW1  230   2.697   1.083   2.067  0.7527  2.2301 -0.7837
   77SOL    HW2  231   2.789   0.949   2.012 -1.5772  2.2328  0.3782
   78SOL     OW  232   1.957   0.742   0.359 -0.0889 -0.1142  0.3541
   78SOL    HW1  233   1.976   0.803   0.278 -0.9073  2.0865 -1.8186
   78SOL    HW2  234   1.865   0.764   0.402 -0.4904  0.5947 -0.2000
   79SOL     OW  235   1.225   1.944   2.317  0.1305 -0.1514  0.4977
   79SOL    HW1  236   1.249   2.006   2.396 -2.4267 -1.0622 -0.6963
   79SOL    HW2  237   1.128   1.953   2.284  1.3165 -0.1534 -1.2955
   80SOL     OW  238   1.155   0.443   1.673 -0.3254  0.4889  0.0308
   80SOL    HW1  239   1.179   0.543   1.666  2.2968 -0.9125  0.5815
   80SOL    HW2  240   1.161   0.414   1.770 -0.2144 -0.7270 -3.3166
   81SOL     OW  241   0.350   2.962   0.288 -0.3545  0.8283  0.0128
   81SOL    HW1  242   0.420   2.967   0.211  0.6809 -1.4534  0.3520
   81SOL    HW2  243   0.400   2.935   0.374  0.6411  2.5848  1.9142
   82SOL     OW  244   1.250   0.314   2.021  0.0253 -0.5741 -0.7942
   82SOL    HW1  245   1.252   0.336   2.122 -0.1573 -2.3412  2.5864
   82SOL    HW2  246   1.343   0.327   1.981 -1.2039 -0.6644  1.8204
   83SOL     OW  247   0.508   2.642   1.173  0.0103 -0.6998  0.4774
   83SOL    HW1  248   0.437   2.713   1.154  1.4420  0.8507 -0.2589
   83SOL    HW2  249   0.463   2.550   1.188 -2.3473 -1.3193 -3.3563
   84SOL     OW  250   2.939   1.435   1.112  0.0564  0.4360 -0.4490
   84SOL    HW1  251   2.959   1.362   1.181 -0.1838 -1.2174 -0.1267
   84SOL    HW2  252   2.995   1.418   1.028 -0.2175  1.0437  0.5723
   85SOL     OW  253   2.633   2.238   1.336 -0.2511 -0.2150 -0.3501
   85SOL    HW1  254   2.579   2.202   1.415  1.5256  0.2799 -0.0343
   85SOL    HW2  255   2.706   2.169   1.314  0.3371 -0.5727 -0.9365
   86SOL     OW  256   1.439   2.509   2.546  0.3662  0.5588 -0.1588
   86SOL    HW1  257   1.370   2.568   2.501  0.0534 -0.1654 -0.8972
   86SOL    HW2  258   1.532   2.505   2.501  0.3142  1.9067 -1.0628
   87SOL     OW  259   2.686   1.518   1.012  0.1799 -0.6539  0.1004
   87SOL    HW1  260   2.696   1.585   0.934  0.6179  0.0216 -4.2680
   87SOL    HW2  261   2.776   1.487   1.051  0.6401 -2.1980 -1.0441
   88SOL     OW  262   0.546   3.415   1.146 -0.0827  0.9151  0.3735
   88SOL    HW1  263   0.485   3.482   1.097 -1.1976 -0.4588  3.9588
   88SOL    HW2  264   0.594   3.456   1.227  1.5423  0.5084 -0.5886
   89SOL     OW  265   0.652   1.366   1.768  0.7265 -0.8647  0.3906
   89SOL    HW1  266   0.752   1.362   1.795  1.4705  0.3818 -0.7076
   89SOL    HW2  267   0.631   1.301   1.689 -1.9900 -0.3003  1.3930
   90SOL     OW  268   3.162   2.106   0.436  0.5404  0.6368 -0.4061
   90SOL    HW1  269   3.137   2.201   0.465 -1.1068  0.8090  2.5318
   90SOL    HW2  270   3.265   2.096   0.427 -1.1236  0.8897 -1.4857
   91SOL     OW  271   0.899   2.271   1.142 -0.2587  0.0824  0.4325
   91SOL    HW1  272   0.857   2.364   1.154 -1.5066  1.1629  2.8864
   91SOL    HW2  273   0.861   2.206   1.213  1.3576  1.4678  0.2851
   92SOL     OW  274   2.509   3.519   2.256  0.6597  0.0123 -0.0831
   92SOL    HW1  275   2.600   3.553   2.292 -2.1881  2.2921  0.2044
   92SOL    HW2  276   2.440   3.492   2.329 -2.8570  2.1874  1.4027
   93SOL     OW  277   0.715   2.282   3.291 -0.3391 -0.5664  0.2885
   93SOL    HW1  278   0.743   2.276   3.390  1.4205  0.6230 -0.2354
   93SOL    HW2  279   0.621   2.246   3.275  1.7350  1.5515  0.1200
   94SOL     OW  280   2.787   3.595   2.404  0.3422 -0.5598 -0.0994
   94SOL    HW1  281   2.787   3.668   2.477  1.0727  3.6112  1.1371
   94SOL    HW2  282   2.835   3.625   2.319  0.0118 -0.8842  2.3024
   95SOL     OW  283   2.249   0.046   2.071  0.0782 -0.1238 -0.1911
   95SOL    HW1  284   2.265   0.149   2.069  4.1974 -1.2614  2.3341
   95SOL    HW2  285   2.318  -0.009   2.123 -1.6985 -1.7157 -0.3364
   96SOL     OW  286   0.813   0.897   2.523 -0.2443  0.0761  0.2763
   96SOL    HW1  287   0.760   0.911   2.611  1.5442 -1.3474  1.8281
   96SOL    HW2  288   0.819   0.985   2.470 -3.7474 -0.9417 -1.4853
   97SOL     OW  289   2.353   3.446   1.731 -0.0871 -0.2428 -0.6539
   97SOL    HW1  290   2.267   3.484   1.773  0.9126  2.9800  0.5322
   97SOL    HW2  291   2.336   3.359   1.680 -2.0678 -2.4691 -2.5459
   98SOL     OW  292   1.994   2.608   1.869  0.3469  0.6653  0.2236
   98SOL    HW1  293   2.021   2.659   1.956  1.3264  1.7730  2.8622
   98SOL    HW2  294   1.981   2.507   1.887 -2.3297  0.7792 -1.9376
   99SOL     OW  295   0.441   0.843   1.267  0.2892  0.0124 -0.6773
   99SOL    HW1  296   0.385   0.930   1.255  0.6993  2.1620  1.1005
   99SOL    HW2  297   0.495   0.828   1.181  0.7364  0.5365  1.4708
  100SOL     OW  298   3.496   2.353   2.312  0.2085  0.6165  0.2978
  100SOL    HW1  299   3.449   2.264   2.333 -0.3896 -1.6001 -1.0586
  100SOL    HW2  300   3.576   2.365   2.376  2.5867  0.0335 -0.0364
  101SOL     OW  301   1.283   0.404   0.043 -0.0043 -0.2752  0.1863
  101SOL    HW1  302   1.379   0.370   0.052  0.8569 -2.3200  0.4954
  101SOL    HW2  303   1.266   0.452  -0.049  0.8442  1.2269  1.2075
  102SOL     OW  304   3.317   0.141   1.465  0.2171  0.4100 -0.1515
  102SOL    HW1  305   3.401   0.201   1.464  1.4072 -2.9062  2.5587
  102SOL    HW2  306   3.250   0.174   1.537  1.2217  1.9642 -0.6380
  103SOL     OW  307   0.176   3.480   2.990  0.1809  0.2338 -0.3755
  103SOL    HW1  308   0.192   3.573   2.947 -2.3377  2.3172 -1.4478
  103SOL    HW2  309   0.077   3.466   3.012 -0.5726 -1.3010 -1.0016
  104SOL     OW  310   0.180   2.853   1.416 -0.5928  0.7678  0.0914
  104SOL    HW1  311   0.103   2.912   1.449 -0.6268 -2.1124 -0.2222
  104SOL    HW2  312   0.271   2.895   1.441 -1.1795 -0.6310  1.4165
  105SOL     OW  313   0.588   1.787   2.405 -0.1267  0.7268 -0.1400
  105SOL    HW1  314   0.535   1.704   2.375 -2.1400 -0.0428 -2.2580
  105SOL    HW2  315   0.536   1.871   2.376  0.6022  0.9781  0.3708
  106SOL     OW  316   3.125   3.252   0.642 -0.5621 -0.1046 -0.0373
  106SOL    HW1  317   3.107   3.227   0.741  2.8718  1.5219  0.1196
  106SOL    HW2  318   3.144   3.352   0.635 -1.0178 -2.4699  0.1141
  107SOL     OW  319   0.804   1.350   1.097  0.5044 -0.3300 -0.0825
  107SOL    HW1  320   0.760   1.358   1.190  1.8791 -0.3779  1.5931
  107SOL    HW2  321   0.887   1.289   1.102 -0.1850  0.2020  1.2822
  108SOL     OW  322   3.446   1.327   2.554 -0.2470  0.8756 -0.1117
  108SOL    HW1  323   3.405   1.423   2.559  1.9370  1.2941 -1.5980
  108SOL    HW2  324   3.550   1.326   2.551 -2.2087 -0.0392 -0.8997
  109SOL     OW  325   2.417   3.109   0.091 -0.4439  0.6864  0.1512
  109SOL    HW1  326   2.316   3.084   0.090 -1.5768  0.4779 -0.0183
  109SOL    HW2  327   2.460   3.101   0.185 -1.5481 -0.2964  1.2014
  110SOL     OW  328   0.291   2.572   0.080  0.4544  0.0677  0.4727
  110SOL    HW1  329   0.244   2.493   0.034  0.5659 -0.8797 -1.5668
  110SOL    HW2  330   0.225   2.639   0.124 -2.0288 -0.2101 -0.6732
  111SOL     OW  331   3.160   1.133   3.203 -0.6677 -0.2668 -0.6433
  111SOL    HW1  332   3.149   1.174   3.108 -0.2887 -1.8721 -0.9326
  111SOL    HW2  333   3.066   1.125   3.244 -0.2933  0.2599  1.4916
  112SOL     OW  334   2.641   3.091   2.073 -0.2156  0.7661  0.0605
  112SOL    HW1  335   2.626   3.190   2.048  1.8911  0.5413 -0.5711
  112SOL    HW2  336   2.574   3.026   2.030  0.8483 -0.0067  0.4218
  113SOL     OW  337   2.594   2.226   3.127 -0.5565 -0.0522  0.5681
  113SOL    HW1  338   2.604   2.130   3.163 -1.4577  0.7851 -0.3741
  113SOL    HW2  339   2.642   2.231   3.037  0.2678 -2.0157  0.4478
  114SOL     OW  340   0.757   3.606   0.661  0.6643  0.7166 -0.4993
  114SOL    HW1  341   0.747   3.517   0.713  0.0175  0.1768  1.2195
  114SOL    HW2  342   0.837   3.658   0.697 -1.4091  0.3960  0.1707
  115SOL     OW  343   0.143   1.997   3.418 -0.1362  0.3829 -0.2391
  115SOL    HW1  344   0.118   2.088   3.464 -1.4181  0.1907  0.2675
  115SOL    HW2  345   0.242   1.976   3.433 -0.5625 -2.4988  1.4089
  116SOL     OW  346   3.385   1.575   1.966 -0.2430 -0.3565 -0.3046
  116SOL    HW1  347   3.424   1.482   1.949  0.9873 -2.0463 -1.4709
  116SOL    HW2  348   3.453   1.634   2.017  0.3437  3.2156  0.9848
  117SOL     OW  349   2.461   0.247   1.744 -0.2817 -0.0219 -0.1727
  117SOL    HW1  350   2.502   0.159   1.708  1.5256  1.4339 -0.9320
  117SOL    HW2  351   2.370   0.272   1.701  1.5194  0.0404  0.8596
  118SOL     OW  352   3.250   2.588   2.846 -0.0377 -0.0407  0.8937
  118SOL    HW1  353   3.200   2.554   2.762 -0.9719 -1.0239 -0.1589
  118SOL    HW2  354   3.323   2.656   2.819  0.8711 -2.7443  3.2078
  119SOL     OW  355   0.455   1.901   2.023 -0.0317  0.2235 -0.5787
  119SOL    HW1  356   0.444   1.962   1.938 -5.1518 -1.8340 -2.2929
  119SOL    HW2  357   0.549   1.861   2.025 -0.0590  1.2793 -0.7329
  120SOL     OW  358   0.269   1.675   2.064  0.2831 -0.2325  0.4903
  120SOL    HW1  359   0.294   1.601   1.994  0.2163 -2.1335  1.3720
  120SOL    HW2  360   0.332   1.756   2.050 -0.9817  0.7435  0.3014
  121SOL     OW  361   1.835   1.150   0.909  0.6901  0.0781  0.3168
  121SOL    HW1  362   1.759   1.085   0.883 -0.2977 -1.3787  1.6306
  121SOL    HW2  363   1.924   1.119   0.867 -0.4346 -0.5630  0.4528
  122SOL     OW  364   2.908   2.752   3.168 -0.5258 -0.0795  0.4956
  122SOL    HW1  365   2.851   2.827   3.123 -1.8317  5.2746 -2.3642
  122SOL    HW2  366   2.842   2.680   3.202  0.8436 -1.7267  2.5128
  123SOL     OW  367   3.547   0.502   0.541  0.1416 -0.0425  0.4103
  123SOL    HW1  368   3.521   0.515   0.640 -1.7646 -0.1489  1.5980
  123SOL    HW2  369   3.532   0.405   0.507  1.6266 -1.9853  0.0384
  124SOL     OW  370   1.908   1.480   0.190  0.4593 -0.1156 -0.7561
  124SOL    HW1  371   1.948   1.475   0.286 -0.1900 -0.4331  2.1425
  124SOL    HW2  372   1.970   1.538   0.131 -0.3515  0.8224 -1.7733
  125SOL     OW  373   3.610   0.947   2.713  0.3532  0.1455  0.5964
  125SOL    HW1  374   3.671   0.978   2.791 -2.5068 -0.4976 -1.1217
  125SOL    HW2  375   3.667   0.899   2.641  0.7607  2.3879 -0.8925
  126SOL     OW  376   3.268   3.323   0.203 -0.5496 -0.1221  0.7892
  126SOL    HW1  377   3.262   3.284   0.108 -2.1266 -1.9004  0.0213
  126SOL    HW2  378   3.265   3.247   0.273 -1.3924  0.2288 -1.3015
  127SOL     OW  379   3.263   2.155   3.616  0.2789  0.4827  0.0935
  127SOL    HW1  380   3.166   2.184   3.638  0.2932 -1.5382  0.5609
  127SOL    HW2  381   3.274   2.053   3.630 -3.1355  0.0197 -2.0650
  128SOL     OW  382   1.057   1.213   0.779 -0.1131  0.0876  0.4436
  128SOL    HW1  383   0.961   1.234   0.749 -1.3668 -1.6204 -0.4246
  128SOL    HW2  384   1.066   1.218   0.882 -1.5606 -0.5121  0.0498
  129SOL     OW  385   2.481   2.347   1.123 -0.2336  0.5357  0.0891
  129SOL    HW1  386   2.536   2.308   1.201  0.4485  0.9258  0.0953
  129SOL    HW2  387   2.437   2.437   1.150 -0.9837  0.2794  1.9813
  130SOL     OW  388   2.218   1.062   0.240  0.0997  0.1813  0.0432
  130SOL    HW1  389   2.309   1.020   0.216 -1.0776  0.2387  0.5398
  130SOL    HW2  390   2.137   1.011   0.202  3.9389 -0.9255  1.2455
  131SOL     OW  391   0.063   1.976   3.095 -0.8357 -0.3542  0.2697
  131SOL    HW1  392  -0.033   1.943   3.079 -0.8360  1.4685  0.3838
  131SOL    HW2  393   0.092   1.975   3.194 -1.3051  1.5788 -1.6620
  132SOL     OW  394   1.499   1.373   2.125 -0.0614 -0.1768 -0.5065
  132SOL    HW1  395   1.489   1.283   2.075 -0.3207  0.6273  2.0496
  132SOL    HW2  396   1.409   1.425   2.119 -2.2627  0.8386 -0.1572
  133SOL     OW  397   0.476   1.288   1.001 -0.0380  0.1342 -0.0166
  133SOL    HW1  398   0.578   1.279   1.007  1.5014 -0.9097  0.8736
  133SOL    HW2  399   0.443   1.373   1.049  3.3151 -1.3833  2.3698
  134SOL     OW  400   0.055   1.620   0.156 -0.2244 -0.3795  0.3014
  134SOL    HW1  401   0.057   1.521   0.131 -1.3061  2.0130  0.2835
  134SOL    HW2  402   0.013   1.675   0.080  1.6220 -1.8007 -1.4471
  135SOL     OW  403   1.985   0.930   0.118  0.3110 -0.7084 -0.3725
  135SOL    HW1  404   1.942   1.023   0.111  0.1036 -0.5516  0.0377
  135SOL    HW2  405   1.948   0.865   0.048 -0.6325 -0.4777  1.6571
  136SOL     OW  406   2.537   2.435   1.689  0.0042  0.5941  0.5644
  136SOL    HW1  407   2.567   2.418   1.786 -2.5913 -0.6168 -0.8237
  136SOL    HW2  408   2.471   2.515   1.682  0.7476 -0.5542  2.7447
  137SOL     OW  409   2.699   2.903   0.822 -0.0463  0.2882 -0.6293
  137SOL    HW1  410   2.680   2.983   0.884 -0.6464 -2.3833 -2.0498
  137SOL    HW2  411   2.736   2.934   0.731 -0.4700 -1.5144  1.4082
  138SOL     OW  412   2.826   0.362   2.106 -0.3314 -0.8627 -0.1240
  138SOL    HW1  413   2.852   0.263   2.097  1.1959  1.9965  2.0398
  138SOL    HW2  414   2.771   0.394   2.025  0.4751 -1.3299 -0.4361
  139SOL     OW  415   3.267   3.108   3.191  0.2758  0.2892  0.1386
  139SOL    HW1  416   3.195   3.061   3.249 -0.4566  2.8252 -2.5549
  139SOL    HW2  417   3.243   3.097   3.090  0.1589  0.8984 -0.4749
  140SOL     OW  418   1.739   2.215   3.083 -0.3502  0.7480  0.1986
  140SOL    HW1  419   1.743   2.316   3.062 -1.7449  0.4480 -0.8359
  140SOL    HW2  420   1.795   2.160   3.016  3.5075  2.3260  1.3012
  141SOL     OW  421   1.713   1.667   2.930 -0.4847  0.5205  0.0205
  141SOL    HW1  422   1.671   1.585   2.885  1.2295 -2.6917 -1.3234
  141SOL    HW2  423   1.754   1.638   3.021  0.0748 -1.3203 -0.3695
  142SOL     OW  424   2.433   2.795   2.406  0.6576  0.6879  0.2355
  142SOL    HW1  425   2.431   2.700   2.364 -1.3974 -4.3928 -0.7113
  142SOL    HW2  426   2.523   2.844   2.394 -2.4543  2.5392  2.6433
  143SOL     OW  427   1.187   2.989   0.579  0.3337 -0.1548 -0.4054
  143SOL    HW1  428   1.246   2.963   0.659 -3.9937 -2.1421 -2.5732
  143SOL    HW2  429   1.149   2.911   0.525 -3.1670 -3.4702  0.9179
  144SOL     OW  430   0.984   3.161   0.659  0.3962 -0.3644  0.4932
  144SOL    HW1  431   0.971   3.235   0.589  0.5853  0.7507  0.9316
  144SOL    HW2  432   1.066   3.104   0.634  2.2742 -2.5970 -0.0979
  145SOL     OW  433   2.128   2.623   3.589 -0.3075 -0.9131  0.0618
  145SOL    HW1  434   2.026   2.611   3.576 -2.7110 -0.9294 -0.4643
  145SOL    HW2  435   2.159   2.723   3.584 -2.6341  1.8276 -1.0491
  146SOL     OW  436   2.072   2.785   0.358  0.4199 -0.0591 -0.6704
  146SOL    HW1  437   2.089   2.855   0.284 -0.0623 -0.2653 -0.2902
  146SOL    HW2  438   2.094   2.688   0.332  0.0650 -0.3554 -2.4818
  147SOL     OW  439   0.436   2.003   2.296  0.0016 -0.4282 -0.3011
  147SOL    HW1  440   0.427   1.970   2.199 -1.3111  2.5575  1.0515
  147SOL    HW2  441   0.474   2.099   2.298 -0.8489 -0.4680 -1.3029
  148SOL     OW  442   1.422   0.030   0.261 -0.0244 -0.7435  0.0525
  148SOL    HW1  443   1.464   0.119   0.228  0.4315  0.8621  1.6511
  148SOL    HW2  444   1.343  -0.003   0.203  0.1931  1.7588 -0.1477
  149SOL     OW  445   0.554   2.455   0.219  0.4091 -0.6123 -0.7684
  149SOL    HW1  446   0.638   2.478   0.165  2.2521  1.9616  2.2296
  149SOL    HW2  447   0.469   2.487   0.171 -1.3047  2.0196  0.3065
  150SOL     OW  448   0.456   3.002   1.455 -0.0686  0.1098 -0.1968
  150SOL    HW1  449   0.559   2.987   1.458 -2.3607 -0.1816  3.0727
  150SOL    HW2  450   0.437   3.069   1.379  0.0862 -0.1151  2.0507
  151SOL     OW  451   0.420   1.954   3.450  0.1164 -0.2908 -0.1961
  151SOL    HW1  452   0.468   1.877   3.402 -1.3832 -1.0431  0.1728
  151SOL    HW2  453   0.433   1.947   3.552  0.9277 -0.2386  2.8438
  152SOL     OW  454   3.542   2.275   1.089 -0.2301  0.4201 -0.4477
  152SOL    HW1  455   3.578   2.220   1.009 -0.5808  0.8790  0.8716
  152SOL    HW2  456   3.439   2.269   1.099  1.8209 -2.0080  0.5836
  153SOL     OW  457   1.830   2.731   0.781  0.0782 -0.2859  0.7546
  153SOL    HW1  458   1.924   2.689   0.775 -3.8406 -2.0086  3.1936
  153SOL    HW2  459   1.763   2.658   0.809  0.1656 -4.4763  1.3128
  154SOL     OW  460   0.990   3.564   1.714  0.2871  0.1836  0.1423
  154SOL    HW1  461   1.021   3.466   1.709  2.4170 -0.5400  0.9659
  154SOL    HW2  462   0.888   3.568   1.720 -2.1382 -0.4452 -0.8050
  155SOL     OW  463   3.113   2.393   0.519 -0.0723 -0.2557  0.1487
  155SOL    HW1  464   3.190   2.448   0.562 -0.9061 -1.6681 -0.6527
  155SOL    HW2  465   3.062   2.451   0.452  2.2742 -0.4742  0.4640
  156SOL     OW  466   2.945   2.374   0.114  0.0804  0.1868 -0.0660
  156SOL    HW1  467   2.902   2.422   0.033  2.3405  0.6217  0.1439
  156SOL    HW2  468   2.948   2.440   0.194  2.8419  2.2801  0.6923
  157SOL     OW  469   0.618   0.188   2.276 -0.1565 -0.5965  0.1537
  157SOL    HW1  470   0.656   0.277   2.314 -1.1769 -0.8402 -0.0732
  157SOL    HW2  471   0.574   0.135   2.354 -0.0930 -2.5145 -0.7530
  158SOL     OW  472   1.168   0.713   1.343  0.5203  0.3754  0.8388
  158SOL    HW1  473   1.234   0.655   1.290 -0.2714  0.1780  1.5621
  158SOL    HW2  474   1.203   0.713   1.440  0.0472 -1.1297  1.0809
  159SOL     OW  475   2.291   1.192   3.454  0.4795 -0.1961 -0.0179
  159SOL    HW1  476   2.236   1.130   3.392 -0.3190  0.3097  0.7662
  159SOL    HW2  477   2.230   1.217   3.535 -0.5704  0.8364  1.1393
  160SOL     OW  478   1.547   2.054   0.634 -0.1605  0.2774 -0.0298
  160SOL    HW1  479   1.617   1.986   0.602  1.3444 -0.5989  4.4551
  160SOL    HW2  480   1.454   2.026   0.599  2.4546  1.8580  0.4597
  161SOL     OW  481   3.280   2.065   3.230  0.1397  0.2795 -0.2017
  161SOL    HW1  482   3.279   2.144   3.164  1.8233  0.0396 -1.3479
  161SOL    HW2  483   3.287   2.101   3.327  1.6520 -0.2434  0.0002
  162SOL     OW  484   3.599   2.658   1.317 -0.4968 -0.6095 -0.1410
  162SOL    HW1  485   3.674   2.716   1.361  1.0122  1.8871  0.6873
  162SOL    HW2  486   3.630   2.559   1.319  1.1793  1.3019  2.0966
  163SOL     OW  487   0.681   0.977   3.083  0.0838  0.3300  0.7067
  163SOL    HW1  488   0.770   1.024   3.109  0.4223  1.2884 -1.3980
  163SOL    HW2  489   0.669   0.893   3.142 -3.5866  0.3659  0.4225
  164SOL     OW  490   0.443   3.087   3.215  0.2053 -0.9313 -0.3391
  164SOL    HW1  491   0.383   3.056   3.292  1.8976  3.3472  1.5089
  164SOL    HW2  492   0.426   3.186   3.190  0.5899 -1.4261 -1.4460
  165SOL     OW  493   2.764   1.191   1.726 -0.1272  0.1868 -0.1552
  165SOL    HW1  494   2.778   1.143   1.816 -0.9293 -0.3676 -1.5282
  165SOL    HW2  495   2.820   1.278   1.722  0.8845  2.1683  0.4929
  166SOL     OW  496   2.486   2.173   1.579  0.1484 -0.0315 -0.6261
  166SOL    HW1  497   2.502   2.263   1.624 -0.5141  3.2598 -0.0825
  166SOL    HW2  498   2.525   2.096   1.634  3.7275  0.4401  0.7375
  167SOL     OW  499   0.091   0.922   3.584  0.2010  0.0838 -0.5988
  167SOL    HW1  500   0.043   0.967   3.664 -0.9199 -0.1847 -2.2229
  167SOL    HW2  501   0.188   0.956   3.582  0.5825 -2.2025 -1.2471
  168SOL     OW  502   2.588   0.511   3.120  0.0950  0.1941 -0.1943
  168SOL    HW1  503   2.500   0.508   3.069 -1.5939 -2.2831  1.6239
  168SOL    HW2  504   2.604   0.423   3.171  1.6204 -1.7560  2.0705
  169SOL     OW  505   0.633   1.449   0.020  0.1547 -0.4082  0.0841
  169SOL    HW1  506   0.606   1.504   0.103 -0.5645  1.2505 -1.5996
  169SOL    HW2  507   0.567   1.454  -0.057 -1.6300 -1.1446  0.7584
  170SOL     OW  508   1.446   1.074   1.752 -1.0917 -0.2622  0.5101
  170SOL    HW1  509   1.483   0.991   1.705 -1.0131 -0.3823  0.2112
  170SOL    HW2  510   1.514   1.151   1.746  0.6150 -2.1909 -2.3443
  171SOL     OW  511   1.901   3.192   1.240  0.2313 -0.2860 -0.0033
  171SOL    HW1  512   1.875   3.138   1.324  2.3525  0.3771  0.7372
  171SOL    HW2  513   1.871   3.153   1.150  1.2904 -0.4630  0.4602
  172SOL     OW  514   1.189   0.077   2.358  0.1929  0.8875 -0.3037
  172SOL    HW1  515   1.106   0.046   2.305 -0.1318 -3.8866 -1.6201
  172SOL    HW2  516   1.265   0.006   2.350  1.8604 -0.6805  2.4665
  173SOL     OW  517   0.965   2.982   1.155  0.5726  0.0503 -0.0265
  173SOL    HW1  518   0.977   3.064   1.093  0.9044 -1.7578 -1.3596
  173SOL    HW2  519   0.867   2.952   1.152  0.1787 -1.4909 -2.1066
  174SOL     OW  520   2.492   0.167   0.306 -0.2995  0.2896 -0.2322
  174SOL    HW1  521   2.395   0.191   0.334 -0.0502 -0.0687 -0.0675
  174SOL    HW2  522   2.498   0.073   0.266  0.1830  1.8044  1.0333
  175SOL     OW  523   1.116   1.630   0.812  0.5130 -0.0152 -0.0510
  175SOL    HW1  524   1.145   1.729   0.817 -1.9831  0.4953 -0.0043
  175SOL    HW2  525   1.027   1.616   0.861 -0.8406  0.1690 -0.7969
  176SOL     OW  526   1.140   2.152   1.187 -0.1100 -0.1719 -0.6291
  176SOL    HW1  527   1.222   2.212   1.214 -0.5091 -0.2451  0.9259
  176SOL    HW2  528   1.056   2.204   1.159  3.4657  0.6096 -0.9258
  177SOL     OW  529   1.524   1.128   1.329 -0.0556  0.6264 -0.3490
  177SOL    HW1  530   1.537   1.025   1.317  0.4238 -0.8055  3.6476
  177SOL    HW2  531   1.606   1.168   1.377 -0.9630 -1.7878  0.5705
  178SOL     OW  532   2.731   1.719   0.776 -0.2457 -0.4522 -0.8726
  178SOL    HW1  533   2.712   1.820   0.763  2.3162 -2.2168  0.0113
  178SOL    HW2  534   2.713   1.669   0.689 -1.6120  0.5659  1.0166
  179SOL     OW  535   1.169   3.324   3.552  0.4774  0.3261 -0.2712
  179SOL    HW1  536   1.129   3.276   3.634  0.7626 -0.5516 -2.6032
  179SOL    HW2  537   1.256   3.282   3.518  2.4082 -1.7564 -1.7176
  180SOL     OW  538   2.033   1.402   1.929 -0.6950 -0.1191  0.3111
  180SOL    HW1  539   1.974   1.483   1.904 -0.1041 -0.3035 -0.1439
  180SOL    HW2  540   2.132   1.432   1.942  0.8974  1.8247 -0.6447
  181SOL     OW  541   0.956   1.134   1.848  0.0150 -0.6818 -0.1099
  181SOL    HW1  542   0.941   1.034   1.863 -0.8580  1.5266 -1.1967
  181SOL    HW2  543   1.015   1.175   1.923  1.1936  0.7159 -2.1503
  182SOL     OW  544   3.331   1.202   0.035 -0.4176  0.2049 -0.5362
  182SOL    HW1  545   3.394   1.215  -0.047  1.2152  3.8773  1.4772
  182SOL    HW2  546   3.281   1.284   0.068 -1.5388  0.4391  1.0300
  183SOL     OW  547   2.245   0.094   2.566  0.2282 -0.4881 -0.0087
  183SOL    HW1  548   2.282   0.000   2.555  1.1984  0.1315 -0.7631
  183SOL    HW2  549   2.144   0.097   2.550  3.4182  0.7900 -3.0043
  184SOL     OW  550   1.151   0.928   1.082 -0.1367 -0.6048  0.3305
  184SOL    HW1  551   1.108   0.866   1.011 -0.5658 -0.0079 -2.2661
  184SOL    HW2  552   1.159   0.879   1.172  0.2139  1.3202  2.4504
  185SOL     OW  553   2.418   1.334   0.603 -0.1864 -0.2819 -0.4766
  185SOL    HW1  554   2.458   1.312   0.694 -0.1184 -0.1883 -0.0440
  185SOL    HW2  555   2.364   1.421   0.606  2.2700 -0.9411  0.3223
  186SOL     OW  556   0.343   2.613   0.527 -0.1398  0.4183 -0.0043
  186SOL    HW1  557   0.361   2.552   0.608  1.0703 -4.5574 -0.9541
  186SOL    HW2  558   0.376   2.570   0.437  1.3815  0.5598  0.9373
  187SOL     OW  559   2.014   1.923   3.199  0.4860  0.2574  0.4545
  187SOL    HW1  560   2.007   1.984   3.114  0.7025 -2.1089 -0.8332
  187SOL    HW2  561   1.992   1.976   3.285  1.2760 -0.7920  0.9971
  188SOL     OW  562   1.585   3.464   1.662 -0.0682  0.0014  0.3163
  188SOL    HW1  563   1.554   3.561   1.668  0.1181 -1.3505  0.7878
  188SOL    HW2  564   1.512   3.397   1.686 -0.1025  2.4156  0.0924
  189SOL     OW  565   3.367   1.655   2.871 -0.1432 -0.4144 -0.7368
  189SOL    HW1  566   3.380   1.744   2.922 -1.4120 -0.6217 -0.7094
  189SOL    HW2  567   3.289   1.601   2.913 -0.8552 -2.0463  1.4089
  190SOL     OW  568   1.202   3.162   2.505 -0.0042 -0.0509  0.0328
  190SOL    HW1  569   1.201   3.069   2.547 -1.9976  1.2670  3.8134
  190SOL    HW2  570   1.299   3.200   2.501 -0.7421  3.1109  0.8632
  191SOL     OW  571   2.793   1.039   1.461 -0.1576  0.1315 -0.2939
  191SOL    HW1  572   2.694   1.012   1.446  1.9831 -0.9029  0.0555
  191SOL    HW2  573   2.803   1.095   1.547 -2.2022  0.5947  1.0476
  192SOL     OW  574   2.328   0.621   1.276 -0.6481  0.8859 -0.3472
  192SOL    HW1  575   2.423   0.583   1.262  0.6773 -0.4203  1.7878
  192SOL    HW2  576   2.258   0.571   1.217  3.2270 -1.1867  1.4403
  193SOL     OW  577   1.025   0.060   0.286 -0.1218 -0.3239 -0.2418
  193SOL    HW1  578   1.029   0.134   0.215  1.0586  1.7222 -1.8555
  193SOL    HW2  579   0.981   0.097   0.371 -1.7700  1.5997 -0.8055
  194SOL     OW  580   1.985   2.760   1.173 -0.1346 -0.0512  0.1934
  194SOL    HW1  581   1.939   2.831   1.113 -1.2496  1.4255 -2.0303
  194SOL    HW2  582   1.916   2.713   1.234  2.2145 -0.2288  0.7162
  195SOL     OW  583   2.823   1.004   0.864 -0.1256 -0.6172  0.0799
  195SOL    HW1  584   2.903   1.045   0.813 -0.3270  0.8668 -0.6170
  195SOL    HW2  585   2.749   1.074   0.879  0.9240 -0.2213  0.4530
  196SOL     OW  586   1.184   2.812   2.091  0.1058  0.4166  0.3957
  196SOL    HW1  587   1.203   2.776   1.997  0.6388 -1.7754 -2.1731
  196SOL    HW2  588   1.084   2.827   2.116  1.0439 -0.8680  0.4747
  197SOL     OW  589   3.142   0.342   2.819 -0.5313 -0.5632  0.6768
  197SOL    HW1  590   3.084   0.426   2.811  1.6373 -3.0154 -0.4913
  197SOL    HW2  591   3.079   0.260   2.813  0.4819 -2.5322 -0.3277
  198SOL     OW  592   2.559   1.773   0.339  0.1097  0.0952  0.0192
  198SOL    HW1  593   2.637   1.795   0.277  1.3026  1.8482  1.0485
  198SOL    HW2  594   2.487   1.715   0.295  0.3361 -0.1343 -1.1706
  199SOL     OW  595   2.796   0.772   2.054 -0.3194  0.4325  0.4595
  199SOL    HW1  596   2.772   0.732   2.148 -1.5322 -0.7212  1.5474
  199SOL    HW2  597   2.783   0.700   1.981 -1.4257  0.3823  1.1582
  200SOL     OW  598   2.108   3.404   3.502 -0.0984 -0.6577  0.2442
  200SOL    HW1  599   2.057   3.469   3.565  1.7037  0.6279  1.8772
  200SOL    HW2  600   2.209   3.407   3.522  2.4050 -1.5726 -0.9756
  201SOL     OW  601   3.143   0.265   1.673 -0.2361 -0.2861 -0.2549
  201SOL    HW1  602   3.060   0.219   1.710 -1.7938 -2.7882 -1.7351
  201SOL    HW2  603   3.113   0.355   1.632 -1.3889  2.2429 -0.1058
  202SOL     OW  604   3.215   3.553   0.638 -0.1569 -0.6307  0.8463
  202SOL    HW1  605   3.181   3.620   0.708 -0.1986  0.3412  1.2845
  202SOL    HW2  606   3.317   3.541   0.646 -1.0015 -0.9337 -0.3983
  203SOL     OW  607   1.747   1.839   0.545  0.4750 -0.0991 -0.1112
  203SOL    HW1  608   1.774   1.769   0.616  0.7996  0.4349 -0.0419
  203SOL    HW2  609   1.815   1.918   0.537  1.3009  1.0383 -0.3700
  204SOL     OW  610   0.162   2.072   2.580  0.2509  0.3005  0.1082
  204SOL    HW1  611   0.140   2.170   2.557  2.2092  0.1179 -1.5893
  204SOL    HW2  612   0.225   2.030   2.508  1.0210  1.7485  1.4765
  205SOL     OW  613   0.572   0.784   1.014  0.1130  0.0639 -0.5165
  205SOL    HW1  614   0.655   0.722   1.022 -1.2730  1.5146 -1.5451
  205SOL    HW2  615   0.492   0.739   0.966  1.3292  0.8657  0.6750
  206SOL     OW  616   0.434   1.171   3.065  0.3731 -0.3601 -0.1028
  206SOL    HW1  617   0.454   1.256   3.010  0.1838 -0.5368 -0.6421
  206SOL    HW2  618   0.517   1.109   3.075  0.1546 -1.0272  0.8780
  207SOL     OW  619   1.602   2.725   1.790 -0.2228 -0.3010  0.2566
  207SOL    HW1  620   1.639   2.739   1.885 -0.5940 -3.5056  2.1227
  207SOL    HW2  621   1.556   2.632   1.782  2.2345  2.0415 -0.5922
  208SOL     OW  622   2.690   0.366   1.196 -0.9343  0.0833  0.2338
  208SOL    HW1  623   2.751   0.299   1.245 -2.0951 -0.7120  3.6437
  208SOL    HW2  624   2.634   0.325   1.120  1.6036  1.5820 -1.8089
  209SOL     OW  625   2.256   1.169   0.993 -0.4111 -0.1870  0.5361
  209SOL    HW1  626   2.245   1.102   1.071  0.7874  2.1906  0.5297
  209SOL    HW2  627   2.192   1.140   0.916  0.4213  1.4771 -0.9704
  210SOL     OW  628   2.514   1.272   0.876 -0.1570 -0.5591 -0.2558
  210SOL    HW1  629   2.434   1.239   0.933 -0.6425 -1.6911  1.0515
  210SOL    HW2  630   2.565   1.346   0.927  1.1885  2.1157 -1.4938
  211SOL     OW  631   1.054   3.360   3.274  0.4725  0.2724  0.1288
  211SOL    HW1  632   0.978   3.294   3.249  0.0166  0.2329 -0.7432
  211SOL    HW2  633   1.082   3.355   3.372 -2.2559  3.0510  1.3873
  212SOL     OW  634   2.178   2.048   0.738  0.0733  0.0901  0.2045
  212SOL    HW1  635   2.222   2.103   0.812 -2.1431  1.1143 -0.9926
  212SOL    HW2  636   2.246   2.030   0.663  3.8294  1.7789  0.7700
  213SOL     OW  637   2.685   3.349   0.268  1.0748 -0.2106  0.2599
  213SOL    HW1  638   2.660   3.251   0.289  2.4851 -0.7448 -2.5513
  213SOL    HW2  639   2.734   3.362   0.177  1.3649  0.8402 -1.1339
  214SOL     OW  640   1.465   2.797   2.729 -0.0045 -0.6627 -0.6071
  214SOL    HW1  641   1.562   2.832   2.712  1.6159 -0.9941  0.1994
  214SOL    HW2  642   1.463   2.703   2.683 -1.0501 -0.0991  0.0213
  215SOL     OW  643   0.397   1.531   1.151 -0.6462 -0.3157  0.7593
  215SOL    HW1  644   0.303   1.539   1.191  0.1126  1.9006  2.8083
  215SOL    HW2  645   0.427   1.621   1.111  2.2742 -3.5365  0.7003
  216SOL     OW  646   0.127   0.104   2.830  0.3361 -0.4050  0.1742
  216SOL    HW1  647   0.182   0.168   2.769 -1.4636 -2.1095  2.4445
  216SOL    HW2  648   0.064   0.042   2.775 -0.2709 -3.3208  1.9492
  217SOL     OW  649   3.417   1.765   1.725 -0.0125 -0.0783 -0.3604
  217SOL    HW1  650   3.513   1.750   1.692 -2.4526 -0.4779 -0.4551
  217SOL    HW2  651   3.393   1.700   1.802 -0.3049 -2.7660  0.2321
  218SOL     OW  652   0.810   2.813   2.021  0.0048  0.0671  0.0235
  218SOL    HW1  653   0.713   2.845   2.025 -1.1992  1.1487  4.0115
  218SOL    HW2  654   0.829   2.736   2.086  0.5698  2.3957  2.4682
  219SOL     OW  655   2.523   2.261   3.429  0.1034  0.4497  0.4819
  219SOL    HW1  656   2.546   2.257   3.328 -3.2551 -2.4860  1.8622
  219SOL    HW2  657   2.541   2.170   3.477 -0.2851  0.7741 -1.8388
  220SOL     OW  658   2.146   0.255   0.069 -0.1490 -0.1670 -0.4727
  220SOL    HW1  659   2.218   0.233  -0.002 -0.0758  0.8353  1.5725
  220SOL    HW2  660   2.109   0.348   0.048 -4.1226  2.1013  1.3220
  221SOL     OW  661   3.355   1.248   0.365  0.2658  0.2918  0.3240
  221SOL    HW1  662   3.330   1.154   0.332  1.0373 -0.2771 -0.4551
  221SOL    HW2  663   3.320   1.317   0.298  3.5294 -0.4762 -0.3693
  222SOL     OW  664   1.855   1.647   0.763  0.4342  0.7636  0.3913
  222SOL    HW1  665   1.832   1.575   0.833 -0.3168  1.3412  0.6367
  222SOL    HW2  666   1.924   1.713   0.803  1.0098 -0.4658  0.0724
  223SOL     OW  667   0.944   0.307   3.463  0.5491  0.2409 -0.3161
  223SOL    HW1  668   1.018   0.266   3.404  0.3549 -1.2990  0.6664
  223SOL    HW2  669   0.931   0.405   3.435 -2.5270 -1.4560 -1.5968
  224SOL     OW  670   1.174   3.387   1.340  0.0529 -0.5337 -0.2850
  224SOL    HW1  671   1.167   3.487   1.363  0.7146  2.3550  1.8238
  224SOL    HW2  672   1.094   3.335   1.381 -2.1260 -0.0584 -0.2806
  225SOL     OW  673   1.071   0.170   2.615  0.0715 -0.3733 -0.4362
  225SOL    HW1  674   1.113   0.127   2.531 -0.3165 -2.2175  2.3341
  225SOL    HW2  675   1.010   0.099   2.661 -1.5369  0.8128  0.4065
  226SOL     OW  676   1.484   1.851   0.944 -0.1074 -0.0580  0.0633
  226SOL    HW1  677   1.559   1.922   0.948 -0.0768 -1.6505  4.0925
  226SOL    HW2  678   1.531   1.759   0.931  1.0222 -1.5432 -2.7687
  227SOL     OW  679   0.188   2.676   1.733  0.6018  0.1033 -0.7418
  227SOL    HW1  680   0.207   2.693   1.631 -1.1581 -1.9741 -0.9134
  227SOL    HW2  681   0.221   2.583   1.761 -1.9134  2.0393 -1.0907
  228SOL     OW  682   0.097   2.209   0.402 -0.3274 -0.4578 -0.3058
  228SOL    HW1  683   0.068   2.301   0.366 -1.2011  1.4504  2.7459
  228SOL    HW2  684   0.164   2.218   0.478 -1.7691 -1.8227 -2.6490
  229SOL     OW  685   2.860   0.277   3.491  0.4287 -0.6079 -0.4118
  229SOL    HW1  686   2.926   0.305   3.417 -1.1896 -3.0786 -0.8294
  229SOL    HW2  687   2.896   0.198   3.546  0.4570  0.1408 -1.2397
  230SOL     OW  688   3.064   1.018   0.449 -0.4607 -0.0957 -0.7684
  230SOL    HW1  689   3.136   1.008   0.375  1.4523  1.7244 -1.8098
  230SOL    HW2  690   2.984   1.069   0.407 -0.9644 -1.0595  1.9271
  231SOL     OW  691   1.930   2.084   0.550 -0.0547 -0.2953 -0.0619
  231SOL    HW1  692   2.010   2.071   0.614 -3.4214 -0.8923 -0.4258
  231SOL    HW2  693   1.929   2.181   0.513 -0.7254  1.0220  1.6090
  232SOL     OW  694   2.102   2.369   1.204 -0.4829  0.4443 -0.1233
  232SOL    HW1  695   2.155   2.445   1.163  0.9112 -1.8614 -0.3964
  232SOL    HW2  696   2.150   2.279   1.191 -2.5922 -1.2430  0.2755
  233SOL     OW  697   0.687   3.377   2.188 -0.0160 -0.3564 -0.4296
  233SOL    HW1  698   0.741   3.464   2.198  3.2921  1.6317  1.6828
  233SOL    HW2  699   0.674   3.364   2.086 -0.2726 -2.7264 -2.1996
  234SOL     OW  700   0.801   0.420   2.865  0.1803  0.4231  0.5148
  234SOL    HW1  701   0.855   0.424   2.777  0.5886  1.3593  1.7597
  234SOL    HW2  702   0.857   0.465   2.940 -0.4959 -1.4225  0.3620
  235SOL     OW  703   3.077   1.252   2.280  0.2533 -0.2218 -0.1333
  235SOL    HW1  704   3.167   1.209   2.307 -1.3149 -0.9827  1.4772
  235SOL    HW2  705   3.020   1.188   2.222 -0.2784 -1.4221 -0.5653
  236SOL     OW  706   1.922   3.256   1.629 -0.2847 -0.4637 -0.2381
  236SOL    HW1  707   1.993   3.291   1.563 -0.5154  0.6403  1.1091
  236SOL    HW2  708   1.854   3.331   1.651 -2.5847 -0.3131 -0.2743
  237SOL     OW  709   0.504   1.989   3.009 -0.1368  0.0183  0.3781
  237SOL    HW1  710   0.578   2.033   2.954 -1.3473 -0.8517 -0.0131
  237SOL    HW2  711   0.428   1.949   2.951  0.4532  0.2553  0.1346
  238SOL     OW  712   1.397   1.112   2.543  0.2026 -0.3516 -0.1981
  238SOL    HW1  713   1.458   1.164   2.479 -0.1418  1.8565  0.8170
  238SOL    HW2  714   1.335   1.047   2.492 -2.0327  0.9818  3.4154
  239SOL     OW  715   0.990   1.987   2.921  0.8701 -0.4311 -0.2698
  239SOL    HW1  716   0.982   2.020   3.018 -1.1944 -0.8575  2.6351
  239SOL    HW2  717   1.020   2.061   2.856  1.0128  3.0493  1.9121
  240SOL     OW  718   2.804   3.037   0.555 -0.4661 -0.0574 -0.3028
  240SOL    HW1  719   2.724   3.063   0.495  1.4256 -0.3037  4.8363
  240SOL    HW2  720   2.860   3.121   0.581 -0.5119 -1.3402 -1.3545
  241SOL     OW  721   0.382   1.218   0.161  0.0771 -0.3560 -0.6494
  241SOL    HW1  722   0.382   1.184   0.259  0.7685  1.3586  0.6111
  241SOL    HW2  723   0.454   1.291   0.146  0.2108 -1.3098 -0.1536
  242SOL     OW  724   1.800   3.430   1.962  0.1412 -0.5477  0.3428
  242SOL    HW1  725   1.729   3.449   1.888  0.9600 -0.0204  2.0894
  242SOL    HW2  726   1.826   3.331   1.964  1.9047  1.2667  3.8441
  243SOL     OW  727   1.426   3.041   2.132 -1.0560 -0.4516  0.0578
  243SOL    HW1  728   1.378   3.131   2.119 -0.0616  2.5392 -1.7047
  243SOL    HW2  729   1.357   2.962   2.128 -2.1128 -0.7485  0.5166
  244SOL     OW  730   2.744   0.671   2.942  0.6872  0.3532 -0.2403
  244SOL    HW1  731   2.715   0.771   2.944 -0.1360  1.2445  2.0416
  244SOL    HW2  732   2.696   0.613   3.011  0.1532 -0.2899 -1.2631
  245SOL     OW  733   1.791   2.645   1.356 -0.0918 -0.1918 -0.1028
  245SOL    HW1  734   1.812   2.665   1.454 -0.8932  0.6811 -1.4738
  245SOL    HW2  735   1.736   2.558   1.350 -2.1486  2.8214  2.0565
  246SOL     OW  736   1.546   0.309   0.028  0.5614  0.1397  0.0902
  246SOL    HW1  737   1.614   0.337   0.099  1.3989  0.1792 -4.1177
  246SOL    HW2  738   1.591   0.308  -0.063 -1.5093 -1.1709 -2.3183
  247SOL     OW  739   2.008   0.408   2.251 -0.7441  0.1302 -0.4654
  247SOL    HW1  740   2.083   0.411   2.179  0.6351 -0.6936  2.1002
  247SOL    HW2  741   2.010   0.327   2.316  0.0986  0.7784  0.5700
  248SOL     OW  742   0.015   2.818   1.904  0.4470  0.4722 -0.4593
  248SOL    HW1  743   0.057   2.913   1.909  1.1720 -2.2123  2.1276
  248SOL    HW2  744   0.065   2.753   1.842  0.1866  1.2318 -1.2599
  249SOL     OW  745   0.645   0.286   0.445 -0.2404 -0.1962 -0.5316
  249SOL    HW1  746   0.545   0.304   0.456  0.1513  1.2159 -0.3062
  249SOL    HW2  747   0.657   0.193   0.404 -3.6038  0.6055  1.1222
  250SOL     OW  748   2.819   0.208   2.607 -0.4801 -0.1938  1.0294
  250SOL    HW1  749   2.742   0.243   2.664 -0.8585  0.7156 -0.2975
  250SOL    HW2  750   2.852   0.275   2.537 -0.6896  2.1778 -1.0682
  251SOL     OW  751   1.575   0.795   3.627 -0.2473  0.0716  0.3082
  251SOL    HW1  752   1.563   0.743   3.716 -1.6968  1.0861 -1.4961
  251SOL    HW2  753   1.500   0.779   3.559  1.8916  0.3639 -1.4779
  252SOL     OW  754   1.849   2.921   2.653 -0.2068 -0.6862  0.0393
  252SOL    HW1  755   1.936   2.949   2.704  0.3366  0.3749 -1.1404
  252SOL    HW2  756   1.822   2.992   2.582 -1.1065  2.7372 -2.3119
  253SOL     OW  757   3.280   3.095   0.439  0.2681 -0.1794  0.8217
  253SOL    HW1  758   3.217   3.140   0.506  1.8114  2.2102 -2.2901
  253SOL    HW2  759   3.371   3.074   0.482  0.1785  0.6050  0.8579
  254SOL     OW  760   2.494   1.171   1.659 -0.2197  0.6083 -0.2469
  254SOL    HW1  761   2.455   1.261   1.629 -1.9271  1.2491 -2.7539
  254SOL    HW2  762   2.593   1.185   1.683  0.7909 -2.6928  2.3714
  255SOL     OW  763   1.053   3.286   1.718  0.4769  0.3813 -0.5330
  255SOL    HW1  764   1.001   3.274   1.630 -0.7397 -1.8879  0.5685
  255SOL    HW2  765   1.010   3.224   1.787  0.1536 -0.2957 -0.5742
  256SOL     OW  766   2.778   1.953   1.990  0.2186  0.4477 -0.1025
  256SOL    HW1  767   2.723   1.943   1.903 -0.9216  2.9148  0.4028
  256SOL    HW2  768   2.868   2.001   1.976 -0.3955  0.1948  2.8361
  257SOL     OW  769   0.534   2.842   3.066 -0.0975  0.2195 -0.1497
  257SOL    HW1  770   0.582   2.783   3.135 -1.4188  1.7016 -1.0252
  257SOL    HW2  771   0.491   2.927   3.105 -2.2370  0.3434 -0.9673
  258SOL     OW  772   0.691   2.917   1.172  0.1104  0.4205 -0.2005
  258SOL    HW1  773   0.623   2.991   1.144  0.2572  0.0960  0.5977
  258SOL    HW2  774   0.648   2.821   1.167 -1.7810  0.0808 -3.0821
  259SOL     OW  775   1.708   0.515   3.155  0.0432  0.7292  0.4846
  259SOL    HW1  776   1.806   0.513   3.183 -0.4462  2.1601  4.9036
  259SOL    HW2  777   1.682   0.607   3.118  2.0680  1.3206 -2.2493
  260SOL     OW  778   0.373   0.406   1.540  0.6117  0.1280  0.0544
  260SOL    HW1  779   0.470   0.443   1.551  0.4734  0.0387 -0.4064
  260SOL    HW2  780   0.358   0.368   1.443  1.3699  0.7082 -0.8346
  261SOL     OW  781   1.457   0.046   2.782 -0.6015  0.3997  0.7623
  261SOL    HW1  782   1.421  -0.051   2.794  1.6937  0.8782  0.6152
  261SOL    HW2  783   1.379   0.114   2.784 -0.8735 -1.2796 -1.1284
  262SOL     OW  784   1.407   3.470   2.306  0.4446 -0.0873  0.3150
  262SOL    HW1  785   1.428   3.405   2.384 -1.2926 -0.0428 -0.8223
  262SOL    HW2  786   1.363   3.423   2.226  0.0624  1.1793  0.2777
  263SOL     OW  787   0.775   2.522   0.053 -0.3183 -0.2874 -0.3744
  263SOL    HW1  788   0.850   2.591   0.032  0.2466 -0.5310  0.8493
  263SOL    HW2  789   0.789   2.432   0.005  2.0293  0.2449 -0.1527
  264SOL     OW  790   1.685   2.094   1.199  0.2370  0.3175  0.4408
  264SOL    HW1  791   1.772   2.045   1.229 -1.9868  0.6338 -0.1065
  264SOL    HW2  792   1.677   2.093   1.098 -0.9950 -0.4361 -0.9759
  265SOL     OW  793   1.079   2.760   0.435  0.2171 -0.6781  0.0837
  265SOL    HW1  794   1.156   2.701   0.397 -1.9323 -1.1196  3.9715
  265SOL    HW2  795   1.006   2.698   0.475 -0.4279  2.1103 -2.4570
  266SOL     OW  796   3.228   1.043   1.209  0.0066  0.1850 -0.7182
  266SOL    HW1  797   3.176   0.979   1.149  1.3607 -2.2658  2.3965
  266SOL    HW2  798   3.282   0.996   1.283  1.0010  0.3240 -2.1025
  267SOL     OW  799   0.293   1.689   0.328  0.5026 -0.1310 -0.7886
  267SOL    HW1  800   0.256   1.704   0.423 -1.2565  0.5563  0.7085
  267SOL    HW2  801   0.215   1.671   0.263  2.4455  0.0499 -1.8365
  268SOL     OW  802   1.552   0.650   0.268 -0.2770 -0.4978  0.4228
  268SOL    HW1  803   1.450   0.643   0.285 -1.1801 -0.9147 -0.6193
  268SOL    HW2  804   1.590   0.713   0.340 -0.0951  0.0375  1.1576
  269SOL     OW  805   3.033   0.814   2.613 -0.0018  0.1251 -0.2478
  269SOL    HW1  806   3.044   0.886   2.685 -1.3808 -0.2619 -0.7824
  269SOL    HW2  807   3.110   0.829   2.545 -2.9622 -0.5882  3.0163
  270SOL     OW  808   3.088   1.373   0.865  0.2078 -0.8104 -0.3007
  270SOL    HW1  809   3.087   1.449   0.793 -0.2423 -1.4406 -1.0539
  270SOL    HW2  810   3.069   1.283   0.816 -1.0952 -0.1253  2.0664
  271SOL     OW  811   0.230   1.385   2.651 -0.5365 -0.0577 -0.9224
  271SOL    HW1  812   0.288   1.349   2.575 -2.0822  0.1568  0.9199
  271SOL    HW2  813   0.201   1.481   2.627 -0.0975 -1.6514 -0.0590
  272SOL     OW  814   2.963   2.673   2.126 -0.8207  0.0243 -0.0059
  272SOL    HW1  815   2.907   2.701   2.208  1.5087 -0.3952  1.4772
  272SOL    HW2  816   3.046   2.620   2.158  2.0338  0.2089 -1.8303
  273SOL     OW  817   0.256   2.971   3.434 -0.0233 -0.8181  0.1004
  273SOL    HW1  818   0.319   2.893   3.457 -1.3581 -1.7864  2.9414
  273SOL    HW2  819   0.175   2.943   3.378  2.2890  0.5819  1.1024
  274SOL     OW  820   0.966   2.620   0.871 -0.7217  0.0240 -0.2936
  274SOL    HW1  821   0.983   2.659   0.965  2.8032 -1.4775 -1.0898
  274SOL    HW2  822   1.052   2.573   0.834 -0.9823 -0.0387 -1.9153
  275SOL     OW  823   1.713   2.509   2.933 -0.2312  0.5699 -0.1128
  275SOL    HW1  824   1.749   2.551   2.846 -0.5808  0.2633  1.4440
  275SOL    HW2  825   1.610   2.493   2.930  1.3911 -0.4063 -0.9507
  276SOL     OW  826   3.370   2.106   2.413  0.2262 -0.2036  0.9121
  276SOL    HW1  827   3.314   2.050   2.347  1.3145  0.5662  0.3104
  276SOL    HW2  828   3.311   2.140   2.489 -0.2526 -1.1615 -0.6093
  277SOL     OW  829   2.552   0.231   0.985 -0.1704  0.0313 -0.3988
  277SOL    HW1  830   2.625   0.228   0.911  2.5078  1.0291 -0.9365
  277SOL    HW2  831   2.457   0.243   0.946 -0.4924 -1.9089  0.7024
  278SOL     OW  832   1.677   0.006   2.957 -0.4751 -0.2030  0.0539
  278SOL    HW1  833   1.597   0.031   2.897 -5.8130  1.1831  0.1523
  278SOL    HW2  834   1.649  -0.004   3.056 -0.3163 -2.5696 -0.9558
  279SOL     OW  835   1.377   3.190   1.209  0.9595 -0.2360 -0.2209
  279SOL    HW1  836   1.375   3.101   1.261  0.9135 -2.0714 -1.1162
  279SOL    HW2  837   1.313   3.261   1.249  0.3830  0.2507 -0.7963
  280SOL     OW  838   1.454   1.283   0.569 -0.0089  0.4306  0.8592
  280SOL    HW1  839   1.389   1.205   0.590  1.5183  1.0637  0.7543
  280SOL    HW2  840   1.470   1.335   0.657 -2.5332  0.4816  0.4779
  281SOL     OW  841   2.435   2.021   0.541  0.1047  0.1185 -0.5164
  281SOL    HW1  842   2.513   2.043   0.605  0.4406  1.4394 -0.8794
  281SOL    HW2  843   2.464   1.944   0.477  1.5229 -0.6423 -1.7298
  282SOL     OW  844   3.350   1.686   0.656 -0.1176  0.2068 -0.0246
  282SOL    HW1  845   3.256   1.716   0.626  0.5235  1.0058 -0.1246
  282SOL    HW2  846   3.423   1.705   0.588 -1.9292  0.0007 -3.2767
  283SOL     OW  847   2.046   2.983   3.452  0.7791  0.4629 -0.0680
  283SOL    HW1  848   1.978   2.920   3.406  0.5845  1.4042  1.4154
  283SOL    HW2  849   2.069   3.065   3.393 -1.6561 -1.6385 -1.0456
  284SOL     OW  850   0.496   0.502   2.844  0.3034 -0.3950  0.5661
  284SOL    HW1  851   0.594   0.476   2.863  0.6199  0.7122 -1.0841
  284SOL    HW2  852   0.440   0.500   2.932  0.5563 -0.7847  1.1741
  285SOL     OW  853   2.363   1.615   0.224 -0.3267 -0.3143 -0.2122
  285SOL    HW1  854   2.336   1.629   0.125  2.4114 -0.3669 -0.4613
  285SOL    HW2  855   2.345   1.519   0.254  0.7093  0.7989  0.3696
  286SOL     OW  856   1.179   2.277   1.960 -0.2486 -0.2024  0.3753
  286SOL    HW1  857   1.249   2.207   1.987 -0.0594 -0.3357  0.1549
  286SOL    HW2  858   1.207   2.326   1.872  1.4859 -1.7528  1.6656
  287SOL     OW  859   2.082   3.348   1.411  0.3203 -0.2853 -0.7138
  287SOL    HW1  860   2.023   3.303   1.339  1.4901 -0.1926 -1.1731
  287SOL    HW2  861   2.116   3.440   1.380  2.4283 -3.6277  0.5792
  288SOL     OW  862   0.648   3.107   2.280 -0.1636  0.2673 -0.3545
  288SOL    HW1  863   0.668   3.205   2.260 -5.2849 -1.6401  1.3141
  288SOL    HW2  864   0.548   3.083   2.265  2.1566 -0.2398 -1.1037
  289SOL     OW  865   3.601   2.083   0.867  0.0934  0.5857  0.1425
  289SOL    HW1  866   3.558   1.991   0.882 -2.0927 -0.1539 -0.6698
  289SOL    HW2  867   3.543   2.142   0.805 -0.7903 -1.4153 -0.1594
  290SOL     OW  868   0.859   2.567   2.206  0.5399  0.0947  0.4469
  290SOL    HW1  869   0.893   2.476   2.170  1.1736  1.5527 -0.2712
  290SOL    HW2  870   0.861   2.570   2.308  0.8952  1.6030 -2.7394
  291SOL     OW  871   2.216   0.236   0.351  0.1414  0.4648  0.3496
  291SOL    HW1  872   2.174   0.323   0.390  0.2363  2.6129  4.3980
  291SOL    HW2  873   2.190   0.230   0.252 -1.5871  1.8453 -0.3668
  292SOL     OW  874   0.725   0.388   1.835  0.1966 -0.3213  0.8570
  292SOL    HW1  875   0.645   0.328   1.864  0.8655  0.4926 -1.4980
  292SOL    HW2  876   0.805   0.378   1.899  0.8960  0.5705 -1.8767
  293SOL     OW  877   2.570   1.592   1.313  0.2532 -0.2758  0.0420
  293SOL    HW1  878   2.658   1.623   1.358  0.3276 -0.0449  0.0555
  293SOL    HW2  879   2.583   1.560   1.215 -1.8697 -1.6601 -2.5177
  294SOL     OW  880   0.470   0.381   2.584 -0.9448  0.1872  0.1686
  294SOL    HW1  881   0.390   0.416   2.532  2.5246 -0.1912  0.0078
  294SOL    HW2  882   0.470   0.422   2.678 -0.6099  2.2267  3.8085
  295SOL     OW  883   1.194   1.697   0.362  0.5602 -0.3652  0.3265
  295SOL    HW1  884   1.264   1.625   0.341 -1.0284 -1.3637  0.0349
  295SOL    HW2  885   1.124   1.653   0.424  0.5267  0.6045 -1.1913
  296SOL     OW  886   2.188   1.287   1.379 -0.6692  0.3449 -0.1686
  296SOL    HW1  887   2.187   1.332   1.285 -0.3408 -0.4864 -2.6099
  296SOL    HW2  888   2.255   1.336   1.441 -1.6662 -0.0649  0.9728
  297SOL     OW  889   2.129   0.981   2.915  0.3407 -0.6368 -0.3419
  297SOL    HW1  890   2.231   0.978   2.904  0.1993  1.0096  1.2886
  297SOL    HW2  891   2.092   1.052   2.851 -2.3736 -0.8847 -0.0053
  298SOL     OW  892   1.053   0.602   3.055  0.0850 -0.0151 -0.1174
  298SOL    HW1  893   1.113   0.555   3.123  2.4011  0.7609  2.5066
  298SOL    HW2  894   1.101   0.651   2.977  0.9937 -0.6217 -1.9833
  299SOL     OW  895   1.562   0.420   2.409 -1.0293 -0.0527  0.3730
  299SOL    HW1  896   1.465   0.406   2.379 -0.0221 -2.7752  0.0030
  299SOL    HW2  897   1.569   0.485   2.488 -1.1286 -0.7424 -0.9825
  300SOL     OW  898   2.937   0.049   2.153 -0.3372  0.5678 -0.1264
  300SOL    HW1  899   2.921  -0.018   2.077 -0.4484  0.6261 -1.5968
  300SOL    HW2  900   3.032   0.089   2.149  0.7725 -2.1451 -1.3683
  301SOL     OW  901   2.154   0.988   1.978 -0.1997  0.2985 -0.2528
  301SOL    HW1  902   2.075   1.051   1.962  0.5685 -1.6196  0.3650
  301SOL    HW2  903   2.178   0.988   2.078  2.0588  1.5239  0.8918
  302SOL     OW  904   0.802   3.313   2.915 -0.4914 -0.2169 -0.2996
  302SOL    HW1  905   0.729   3.284   2.848  0.7351  0.8419 -0.4740
  302SOL    HW2  906   0.894   3.317   2.867 -0.0024 -0.4877 -0.8499
  303SOL     OW  907   1.937   2.267   1.971 -0.6939  0.0808  0.0790
  303SOL    HW1  908   1.996   2.253   1.889  0.1737 -0.0083  0.1255
  303SOL    HW2  909   1.839   2.250   1.949  1.2311 -2.0206  0.7605
  304SOL     OW  910   0.240   3.355   0.814 -0.0468 -0.1543 -0.3225
  304SOL    HW1  911   0.308   3.285   0.785 -0.1253 -0.6555  0.2138
  304SOL    HW2  912   0.151   3.310   0.841 -0.3835  0.2922 -0.2455
  305SOL     OW  913   1.670   0.820   0.472 -0.2849 -0.2957  0.5060
  305SOL    HW1  914   1.680   0.921   0.453  0.0869  2.1476  0.2042
  305SOL    HW2  915   1.647   0.801   0.570 -1.5215 -1.6464  3.4292
  306SOL     OW  916   0.441   1.935   0.152  0.5374  0.1518 -0.2769
  306SOL    HW1  917   0.536   1.955   0.190  0.2949  0.5146 -1.7969
  306SOL    HW2  918   0.390   1.861   0.203 -1.4592 -0.4422  0.2931
  307SOL     OW  919   0.665   1.192   2.115 -0.4949  0.6458 -0.4409
  307SOL    HW1  920   0.666   1.228   2.017  1.9375 -0.0841 -0.3942
  307SOL    HW2  921   0.633   1.093   2.111 -0.4284 -2.5724 -0.3768
  308SOL     OW  922   0.830   0.201   1.341 -0.0759 -0.2629 -0.5888
  308SOL    HW1  923   0.776   0.238   1.262  0.1453  1.5669 -0.3685
  308SOL    HW2  924   0.845   0.274   1.411 -0.4024  0.1479  1.3463
  309SOL     OW  925   2.488   0.913   0.115 -0.3242  0.2048 -0.5297
  309SOL    HW1  926   2.577   0.866   0.134  2.2784 -0.1599 -1.4030
  309SOL    HW2  927   2.508   0.985   0.045  0.0603 -3.2605  0.9723
  310SOL     OW  928   1.372   1.257   0.098  0.1498 -0.2828 -0.1236
  310SOL    HW1  929   1.306   1.287   0.025  2.1497  1.6412  0.5032
  310SOL    HW2  930   1.374   1.330   0.171  1.2058  1.0026  0.5713
  311SOL     OW  931   2.038   2.692   2.986  0.6288  0.1491 -0.0701
  311SOL    HW1  932   1.961   2.663   2.921 -0.3879  0.0028  1.3930
  311SOL    HW2  933   2.094   2.766   2.935  0.9794 -0.0102  0.7517
  312SOL     OW  934   2.439   3.539   3.538  0.2909 -0.3146  0.1656
  312SOL    HW1  935   2.410   3.636   3.519  0.3659  0.3823 -1.4609
  312SOL    HW2  936   2.451   3.528   3.639  0.6017  1.6441  0.0018
  313SOL     OW  937   0.436   0.479   0.704  0.1895  0.1680  0.1104
  313SOL    HW1  938   0.382   0.535   0.771  0.7712  2.3252  3.5248
  313SOL    HW2  939   0.506   0.535   0.651 -1.6494  0.0009 -1.1540
  314SOL     OW  940   3.034   1.553   3.439  0.1387 -0.4123  0.0514
  314SOL    HW1  941   3.059   1.489   3.361  0.4696 -0.2396 -2.4185
  314SOL    HW2  942   3.077   1.645   3.423  0.3522 -2.4834 -0.0661
  315SOL     OW  943   2.220   1.001   2.272 -1.1207  0.1711 -0.6102
  315SOL    HW1  944   2.230   0.927   2.343  2.3141 -0.4319  0.2511
  315SOL    HW2  945   2.190   1.090   2.314  2.8626 -0.4894  1.8128
  316SOL     OW  946   0.058   1.033   1.039 -0.6956  0.0833 -0.4741
  316SOL    HW1  947  -0.023   1.096   1.039 -1.5586 -2.4003  0.4082
  316SOL    HW2  948   0.090   1.017   0.942  1.0072 -1.6762 -1.5313
  317SOL     OW  949   0.483   0.345   0.100 -0.2060 -0.2156 -0.3181
  317SOL    HW1  950   0.470   0.316   0.199  1.2663 -0.0345  0.6902
  317SOL    HW2  951   0.559   0.291   0.055 -1.7180  0.6286 -1.3414
  318SOL     OW  952   3.101   3.322   1.596 -0.2198  0.1047  0.0086
  318SOL    HW1  953   3.095   3.238   1.538  0.1634  0.6366  0.9410
  318SOL    HW2  954   3.080   3.303   1.696 -1.5649 -0.1255  0.4929
  319SOL     OW  955   1.452   2.072   0.230  0.0637  0.0551 -0.2250
  319SOL    HW1  956   1.420   2.164   0.198  0.5945  2.4204 -0.5653
  319SOL    HW2  957   1.403   2.046   0.316  1.7711  0.0865 -1.5428
  320SOL     OW  958   0.764   2.505   1.244 -0.2365  0.4170  0.4553
  320SOL    HW1  959   0.782   2.525   1.343  0.3014  1.0037 -1.2497
  320SOL    HW2  960   0.684   2.562   1.213 -1.8600 -1.7891 -2.6994
  321SOL     OW  961   2.594   2.713   2.897 -0.0534  0.2578  0.0809
  321SOL    HW1  962   2.510   2.738   2.844  1.0858 -1.3749 -0.8911
  321SOL    HW2  963   2.670   2.695   2.830  1.4365 -1.1024  0.9554
  322SOL     OW  964   3.455   2.946   2.753 -0.3557  0.3009 -0.1965
  322SOL    HW1  965   3.510   2.917   2.836  0.4416 -0.4455  1.8672
  322SOL    HW2  966   3.376   3.001   2.792 -0.3129  2.9548 -2.2757
  323SOL     OW  967   3.239   0.419   1.020  0.2496 -0.7716 -0.0518
  323SOL    HW1  968   3.318   0.464   0.972  1.0063 -0.9686 -0.8612
  323SOL    HW2  969   3.150   0.448   0.976  0.7696 -1.1375 -3.2167
  324SOL     OW  970   2.970   2.091   2.763 -0.1612 -0.0658  0.0865
  324SOL    HW1  971   2.952   2.051   2.669 -0.0352  1.5009  0.8355
  324SOL    HW2  972   2.956   2.019   2.836  1.4579  1.4574  0.3792
  325SOL     OW  973   1.923   0.529   2.747  0.3112  0.3716  0.5322
  325SOL    HW1  974   1.936   0.600   2.820  0.3441  4.4823  1.8033
  325SOL    HW2  975   1.958   0.555   2.655  1.4520 -3.8653  1.2798
  326SOL     OW  976   3.369   2.541   0.682 -0.3980  0.0006 -0.1494
  326SOL    HW1  977   3.333   2.585   0.768  1.2787  2.9162  0.8724
  326SOL    HW2  978   3.452   2.593   0.650  2.5437  1.1434 -0.9357
  327SOL     OW  979   3.024   0.003   3.625 -0.8637  0.0792 -0.7126
  327SOL    HW1  980   2.951  -0.070   3.639 -1.2889 -0.9620 -0.7578
  327SOL    HW2  981   3.098  -0.033   3.565 -0.3896  0.9241 -0.5384
  328SOL     OW  982   1.034   0.731   0.894  0.4131 -0.0540 -0.2005
  328SOL    HW1  983   0.984   0.755   0.808  1.0607  0.6911  1.7846
  328SOL    HW2  984   1.123   0.688   0.869 -0.1864 -0.8575 -0.1620
  329SOL     OW  985   2.412   0.944   1.836  0.6734 -0.3130  0.2125
  329SOL    HW1  986   2.327   0.963   1.892 -0.9506  1.2266 -1.3673
  329SOL    HW2  987   2.439   1.025   1.778  0.9612 -0.9949 -0.0832
  330SOL     OW  988   1.547   0.290   0.711  0.4054  0.1824  0.0125
  330SOL    HW1  989   1.508   0.385   0.726 -1.5579 -1.6094  0.1829
  330SOL    HW2  990   1.638   0.304   0.666  0.5159  1.0170 -1.0408
  331SOL     OW  991   0.613   2.307   2.308  0.2459 -0.0020 -0.1709
  331SOL    HW1  992   0.687   2.319   2.235 -2.6666  0.4171 -2.5065
  331SOL    HW2  993   0.570   2.394   2.343  1.0004  1.6026 -0.7368
  332SOL     OW  994   2.621   2.334   1.976  0.0887  0.7922  0.1079
  332SOL    HW1  995   2.584   2.260   2.039  0.9325 -1.8859 -2.8993
  332SOL    HW2  996   2.725   2.328   1.981 -0.3571  1.1487  1.2349
  333SOL     OW  997   3.408   3.593   1.080 -0.5001  0.4030  0.1744
  333SOL    HW1  998   3.334   3.651   1.124  2.2098 -0.0924 -1.4635
  333SOL    HW2  999   3.450   3.643   1.002  0.0834 -1.9977 -0.1167
  334SOL     OW 1000   3.389   1.902   1.223  0.8285 -0.1388 -0.4224
  334SOL    HW1 1001   3.484   1.906   1.265  1.2713 -1.1950 -0.2563
  334SOL    HW2 1002   3.394   1.858   1.130  0.4682  1.6136 -1.9188
  335SOL     OW 1003   0.641   3.532   3.027  0.3273 -0.7007 -0.6444
  335SOL    HW1 1004   0.557   3.493   3.068  1.3292 -3.1166 -0.2587
  335SOL    HW2 1005   0.701   3.457   2.988 -1.0719 -0.6952 -1.9717
  336SOL     OW 1006   0.186   3.169   1.867 -0.1122  0.2080 -0.2907
  336SOL    HW1 1007   0.123   3.207   1.795 -0.5009 -0.1448  1.4731
  336SOL    HW2 1008   0.162   3.205   1.961  0.1408 -1.1624 -2.1926
  337SOL     OW 1009   1.030   2.213   2.722  0.5044 -0.6624 -0.0687
  337SOL    HW1 1010   1.041   2.295   2.783 -0.9157  0.3884  3.1856
  337SOL    HW2 1011   0.948   2.224   2.660  1.1303  0.9880 -1.6533
  338SOL     OW 1012   1.376   3.395   2.863  0.3926  0.1480 -0.2707
  338SOL    HW1 1013   1.470   3.358   2.843 -0.7709 -0.9720 -0.0960
  338SOL    HW2 1014   1.351   3.378   2.962 -2.0316 -1.8350 -2.3876
  339SOL     OW 1015   3.591   1.755   3.547  0.1762 -0.1491 -0.3269
  339SOL    HW1 1016   3.584   1.689   3.468 -1.8639  0.3779  1.6297
  339SOL    HW2 1017   3.643   1.839   3.520  2.2693 -0.4919 -1.0098
  340SOL     OW 1018   2.294   0.643   1.570 -0.2788  0.0283 -0.4476
  340SOL    HW1 1019   2.312   0.634   1.469  0.6859 -3.3942 -2.3590
  340SOL    HW2 1020   2.383   0.656   1.621  1.1185 -1.3763  1.7160
  341SOL     OW 1021   2.214   1.441   1.106  0.4032 -0.0178  0.2955
  341SOL    HW1 1022   2.249   1.509   1.038  0.7879 -2.6095  0.6095
  341SOL    HW2 1023   2.221   1.346   1.067 -0.5458 -2.3056  1.8978
  342SOL     OW 1024   2.591   2.571   3.148  0.0102  0.0418  0.3276
  342SOL    HW1 1025   2.599   2.470   3.135 -0.8068  0.3230 -1.2720
  342SOL    HW2 1026   2.596   2.616   3.056 -3.3125  0.4088 -1.4261
  343SOL     OW 1027   3.524   3.100   1.250  0.6453 -0.4593 -0.2442
  343SOL    HW1 1028   3.508   3.012   1.199 -0.3950  0.5290  1.0210
  343SOL    HW2 1029   3.543   3.080   1.348  0.3317 -1.2743 -1.5134
  344SOL     OW 1030   3.082   3.196   0.971 -0.7991 -0.4102 -0.0586
  344SOL    HW1 1031   3.007   3.229   1.034 -2.3224  0.3967  1.4132
  344SOL    HW2 1032   3.175   3.230   1.000  0.6590  1.3237  1.4392
  345SOL     OW 1033   2.928   2.569   0.351  0.6489 -0.3450  0.2463
  345SOL    HW1 1034   2.826   2.557   0.362 -0.7527  1.8087  0.6708
  345SOL    HW2 1035   2.955   2.668   0.343  1.6390 -1.1187  0.2578
  346SOL     OW 1036   1.269   2.698   2.416  0.5431 -0.0437  0.6334
  346SOL    HW1 1037   1.236   2.774   2.479 -1.8498 -0.1959  0.3696
  346SOL    HW2 1038   1.250   2.720   2.317 -1.9134  0.1341 -0.2148
  347SOL     OW 1039   1.999   2.277   2.653 -0.6999 -0.6373 -0.2499
  347SOL    HW1 1040   1.970   2.375   2.676 -0.7230 -0.7887  0.7364
  347SOL    HW2 1041   1.991   2.260   2.552  1.3175  1.0559  0.4018
  348SOL     OW 1042   0.472   2.194   1.378 -0.2675 -0.0898  0.3111
  348SOL    HW1 1043   0.427   2.270   1.326 -0.2883  2.1188  0.1136
  348SOL    HW2 1044   0.574   2.201   1.365  2.7511 -1.4017 -4.1750
  349SOL     OW 1045   1.870   1.617   1.855 -0.4194 -0.0674  0.2829
  349SOL    HW1 1046   1.923   1.698   1.820  1.0824  0.4681 -0.3805
  349SOL    HW2 1047   1.785   1.600   1.801 -0.4043 -0.0675 -1.3234
  350SOL     OW 1048   2.621   2.573   0.708  0.4874  0.1239 -0.7547
  350SOL    HW1 1049   2.524   2.557   0.737 -0.5355 -0.2856 -3.3280
  350SOL    HW2 1050   2.652   2.662   0.751  0.4112 -0.7379 -3.8032
  351SOL     OW 1051   0.511   0.184   1.987  0.4169 -0.1175 -0.1306
  351SOL    HW1 1052   0.547   0.178   2.083 -2.6371 -0.1957 -1.4860
  351SOL    HW2 1053   0.409   0.170   1.990  0.9841 -1.8208  0.0753
  352SOL     OW 1054   0.671   1.294   0.380  0.0004 -0.0170  0.3109
  352SOL    HW1 1055   0.635   1.388   0.362 -0.4531  3.8303 -0.8911
  352SOL    HW2 1056   0.720   1.252   0.300  0.4652 -2.2515  1.2153
  353SOL     OW 1057   0.860   1.677   3.268 -0.0232  0.0246  0.6213
  353SOL    HW1 1058   0.905   1.765   3.238 -0.8930 -1.2826 -1.8426
  353SOL    HW2 1059   0.877   1.594   3.208 -1.8712  0.2269  3.0540
  354SOL     OW 1060   2.068   2.728   2.135  0.0882  0.4868  0.4148
  354SOL    HW1 1061   2.099   2.823   2.108  1.6295 -2.0440  0.2951
  354SOL    HW2 1062   2.141   2.679   2.191 -0.3430 -0.0615  1.0428
  355SOL     OW 1063   2.672   0.963   3.304  0.0956 -0.3040  0.4260
  355SOL    HW1 1064   2.676   0.864   3.333 -0.4949 -0.8153 -0.3893
  355SOL    HW2 1065   2.631   0.972   3.209  0.0610 -0.9778  0.5337
  356SOL     OW 1066   0.831   2.528   1.575 -0.3676 -0.6513 -0.2870
  356SOL    HW1 1067   0.872   2.617   1.609  3.7361  2.4432 -1.1349
  356SOL    HW2 1068   0.777   2.483   1.649  0.0998  2.0308 -1.2410
  357SOL     OW 1069   0.194   0.180   2.048 -0.1476 -0.0154  0.2094
  357SOL    HW1 1070   0.146   0.138   2.129 -0.5869  2.0638  0.6317
  357SOL    HW2 1071   0.188   0.284   2.042  1.0048  1.2747  0.2774
  358SOL     OW 1072   3.023   2.309   1.762  0.0551 -0.0817  0.0271
  358SOL    HW1 1073   3.022   2.242   1.684 -0.1769  0.8142 -1.9897
  358SOL    HW2 1074   3.021   2.406   1.727 -0.7022 -1.1820 -0.0250
  359SOL     OW 1075   2.566   2.189   2.595  0.7368  0.3116  0.1075
  359SOL    HW1 1076   2.478   2.213   2.640 -3.0762 -1.8241 -1.6299
  359SOL    HW2 1077   2.599   2.268   2.535 -0.4405 -1.9226  2.5101
  360SOL     OW 1078   1.548   3.192   0.985 -0.7824 -0.0508  0.3452
  360SOL    HW1 1079   1.487   3.188   1.067  5.0370  2.1176  0.6312
  360SOL    HW2 1080   1.567   3.289   0.956 -3.8017  0.6104 -0.6932
  361SOL     OW 1081   2.459   3.493   0.192  0.1377  0.2384  0.7142
  361SOL    HW1 1082   2.375   3.441   0.221 -0.3479 -0.9975 -2.0221
  361SOL    HW2 1083   2.546   3.449   0.223  0.5242 -2.5558  0.1884
  362SOL     OW 1084   2.100   0.845   1.668  0.2100 -0.1512  0.1892
  362SOL    HW1 1085   2.139   0.881   1.756  0.9025 -0.3134 -1.7796
  362SOL    HW2 1086   2.157   0.767   1.634 -2.1455  1.2850 -0.0362
  363SOL     OW 1087   2.050   1.765   2.560 -0.6825 -0.1183 -0.0813
  363SOL    HW1 1088   1.973   1.791   2.622  1.5396  0.1413  0.2268
  363SOL    HW2 1089   2.140   1.765   2.612  0.5746 -0.8115 -0.0459
  364SOL     OW 1090   0.691   0.698   1.791 -0.2743 -0.5217 -0.1707
  364SOL    HW1 1091   0.692   0.597   1.804  0.8943  1.3964 -0.1358
  364SOL    HW2 1092   0.657   0.725   1.698 -0.0326 -3.0185  1.5008
  365SOL     OW 1093   1.099   0.881   3.283 -0.4687 -0.4573  0.6201
  365SOL    HW1 1094   1.074   0.844   3.190 -2.4642 -1.8800  4.2249
  365SOL    HW2 1095   1.075   0.982   3.290  0.0085 -0.4896  0.0681
  366SOL     OW 1096   2.647   1.355   3.145  0.2615 -0.3230  0.8355
  366SOL    HW1 1097   2.722   1.309   3.199  2.6922  1.1130  2.7705
  366SOL    HW2 1098   2.577   1.389   3.212  2.2331 -0.0126  0.1817
  367SOL     OW 1099   0.020   3.081   2.618 -0.5655  0.3441 -0.2821
  367SOL    HW1 1100  -0.054   3.030   2.669 -0.1661  1.7643 -0.3306
  367SOL    HW2 1101  -0.022   3.147   2.549 -2.0134  1.1422 -1.8474
  368SOL     OW 1102   3.533   1.294   1.649 -0.0827  0.3828 -0.0648
  368SOL    HW1 1103   3.440   1.315   1.611  0.3446 -0.0537  0.6457
  368SOL    HW2 1104   3.529   1.290   1.752  2.2211 -0.2307  1.7897
  369SOL     OW 1105   0.476   3.466   2.516 -0.1561  0.6651 -0.4537
  369SOL    HW1 1106   0.528   3.434   2.432 -2.6252 -0.1697  1.8224
  369SOL    HW2 1107   0.507   3.557   2.550  0.1575  1.8841 -1.4838
  370SOL     OW 1108   3.253   0.285   0.636  0.3500  0.0945 -0.2156
  370SOL    HW1 1109   3.195   0.368   0.614 -2.9695  1.4730 -0.2710
  370SOL    HW2 1110   3.207   0.219   0.701 -0.4735  0.8668  0.7029
  371SOL     OW 1111   0.924   2.757   1.716 -0.3437 -0.6391  0.5266
  371SOL    HW1 1112   1.025   2.746   1.731 -2.4100  0.0216 -0.9033
  371SOL    HW2 1113   0.872   2.775   1.803  0.1799 -0.2456 -1.8214
  372SOL     OW 1114   2.630   0.311   2.782  0.0160  0.6870  0.1888
  372SOL    HW1 1115   2.648   0.386   2.854 -0.1881  0.7082 -1.0349
  372SOL    HW2 1116   2.529   0.286   2.794  1.5611  1.2874 -1.6750
  373SOL     OW 1117   0.195   2.643   0.926  0.0095  0.1520 -0.1401
  373SOL    HW1 1118   0.236   2.707   0.998  1.6591 -0.6758  2.9113
  373SOL    HW2 1119   0.114   2.597   0.969 -0.6784 -0.6094  1.4675
  374SOL     OW 1120   3.397   0.395   2.638 -0.3055 -0.5611  0.4881
  374SOL    HW1 1121   3.312   0.366   2.688 -0.5413 -0.6299  2.6149
  374SOL    HW2 1122   3.459   0.436   2.708  2.2777 -3.0216 -1.1516
  375SOL     OW 1123   0.696   0.722   3.303 -0.0541 -0.4713  0.4274
  375SOL    HW1 1124   0.635   0.639   3.289 -0.2353 -0.4048  1.1786
  375SOL    HW2 1125   0.785   0.698   3.346 -3.1614  0.2743  2.3378
  376SOL     OW 1126   3.404   2.748   2.049 -0.4630  0.1057  0.0033
  376SOL    HW1 1127   3.490   2.757   1.993  1.5083 -1.5949  0.6575
  376SOL    HW2 1128   3.318   2.771   1.997 -0.2849 -0.4809 -0.2654
  377SOL     OW 1129   1.256   0.483   3.220 -0.0573  0.0722 -0.4189
  377SOL    HW1 1130   1.229   0.389   3.249  1.6864 -0.5953  0.0620
  377SOL    HW2 1131   1.323   0.480   3.143  2.2569 -0.6592 -1.3005
  378SOL     OW 1132   3.529   1.274   3.355 -0.7185  0.3465  0.7427
  378SOL    HW1 1133   3.614   1.220   3.329  1.4761  3.0187 -1.5435
  378SOL    HW2 1134   3.445   1.230   3.311 -0.1671 -1.5239 -2.1851
  379SOL     OW 1135   1.635   0.773   3.038 -0.1727 -0.2356 -0.0416
  379SOL    HW1 1136   1.570   0.758   2.957 -0.1444  0.5774  1.3596
  379SOL    HW2 1137   1.601   0.847   3.102 -0.9581  2.2773 -1.5786
  380SOL     OW 1138   0.282   2.406   1.866  0.4163 -0.3846  0.4829
  380SOL    HW1 1139   0.343   2.463   1.928 -2.6441 -0.3134 -2.0718
  380SOL    HW2 1140   0.188   2.402   1.905  0.6484  3.6595  0.2181
  381SOL     OW 1141   3.604   1.579   3.316 -0.0489  0.2112  0.4060
  381SOL    HW1 1142   3.640   1.594   3.221 -1.6942 -3.5925  2.3401
  381SOL    HW2 1143   3.573   1.480   3.328 -1.4618  0.3157 -0.2626
  382SOL     OW 1144   2.319   2.558   0.793  0.0983 -0.2283  0.4156
  382SOL    HW1 1145   2.235   2.508   0.756  0.4614 -0.2089  0.3544
  382SOL    HW2 1146   2.307   2.566   0.896  1.4409  5.1415 -0.7189
  383SOL     OW 1147   0.722   1.978   0.264 -0.6083  0.2016  0.4569
  383SOL    HW1 1148   0.806   1.992   0.207  0.3837  1.9235  0.0960
  383SOL    HW2 1149   0.745   1.908   0.336  1.9370  4.0662 -0.3547
  384SOL     OW 1150   0.972   2.862   2.845 -0.6743 -0.0029  0.0184
  384SOL    HW1 1151   0.877   2.891   2.816  3.1081 -1.0658  1.4143
  384SOL    HW2 1152   0.969   2.761   2.865 -2.0558 -0.7678 -0.1439
  385SOL     OW 1153   2.831   2.312   0.742  0.0953 -0.0679 -0.5055
  385SOL    HW1 1154   2.770   2.397   0.738 -0.8560  0.4093  0.3172
  385SOL    HW2 1155   2.917   2.323   0.686  4.2560  0.6452 -0.5552
  386SOL     OW 1156   2.821   0.649   1.158 -0.5575 -0.3203 -0.1155
  386SOL    HW1 1157   2.787   0.555   1.185 -2.5942 -0.8653 -2.0276
  386SOL    HW2 1158   2.784   0.680   1.066  1.1368 -0.6584 -0.9089
  387SOL     OW 1159   0.779   1.152   2.383 -0.0175  0.2171 -0.2997
  387SOL    HW1 1160   0.718   1.185   2.458 -0.0723 -1.4641  0.2484
  387SOL    HW2 1161   0.736   1.171   2.292 -2.3466 -2.1077  0.1937
  388SOL     OW 1162   1.230   1.745   2.918 -0.1812 -0.0602 -0.4436
  388SOL    HW1 1163   1.147   1.804   2.914 -0.6985  1.6169  1.2257
  388SOL    HW2 1164   1.319   1.795   2.911  0.4696  0.5328  0.0223
  389SOL     OW 1165   1.235   1.475   2.092  0.2864  0.6192 -0.1161
  389SOL    HW1 1166   1.189   1.383   2.091 -2.3874  0.2070 -1.5301
  389SOL    HW2 1167   1.210   1.535   2.012  0.4746 -1.8984  0.0263
  390SOL     OW 1168   0.035   3.605   1.225 -0.5242  0.5619  0.2155
  390SOL    HW1 1169  -0.061   3.592   1.189 -0.7116 -0.2836 -0.5555
  390SOL    HW2 1170   0.088   3.670   1.167 -1.7391  0.6075 -1.6459
  391SOL     OW 1171   1.809   1.480   1.281 -0.1780 -0.1649 -0.1535
  391SOL    HW1 1172   1.787   1.451   1.185 -0.5390  0.0468  1.7902
  391SOL    HW2 1173   1.894   1.537   1.293 -1.0205 -1.7293 -0.9944
  392SOL     OW 1174   3.405   3.618   0.237 -0.0110  0.1329  0.1913
  392SOL    HW1 1175   3.494   3.598   0.190 -0.1788  0.0090 -1.6843
  392SOL    HW2 1176   3.348   3.532   0.246 -1.4260  2.0036 -0.4030
  393SOL     OW 1177   1.850   2.572   3.533  0.1215 -0.2076  0.5367
  393SOL    HW1 1178   1.856   2.472   3.505 -1.0320  0.1627  1.7560
  393SOL    HW2 1179   1.773   2.580   3.603  1.2643  0.8109 -2.1042
  394SOL     OW 1180   0.034   2.894   3.265  0.5604 -0.3306  0.7516
  394SOL    HW1 1181   0.052   2.888   3.163 -2.0962  1.4397 -1.9345
  394SOL    HW2 1182  -0.039   2.825   3.290  1.5091  0.1220 -0.0827
  395SOL     OW 1183   0.173   0.156   1.053  0.4425  0.8295 -0.0964
  395SOL    HW1 1184   0.224   0.239   1.088 -2.4477  1.0892  0.0040
  395SOL    HW2 1185   0.239   0.084   1.023  1.4765  0.5776 -1.0750
  396SOL     OW 1186   2.586   0.678   0.578  0.2893  0.0416 -0.1901
  396SOL    HW1 1187   2.501   0.646   0.527  0.5662 -0.8306 -1.2677
  396SOL    HW2 1188   2.670   0.636   0.537  1.0876 -0.9906  0.1122
  397SOL     OW 1189   0.184   0.828   3.053 -0.3004 -0.1301  0.4020
  397SOL    HW1 1190   0.130   0.844   3.140 -0.7426  0.4157  1.0551
  397SOL    HW2 1191   0.178   0.912   2.993  1.7137 -0.2851  1.7019
  398SOL     OW 1192   0.699   0.170   3.555 -0.2103 -0.1730 -0.3740
  398SOL    HW1 1193   0.631   0.172   3.477  3.2567 -0.3214  2.3423
  398SOL    HW2 1194   0.790   0.213   3.532  0.2310 -1.3735  1.8583
  399SOL     OW 1195   2.411   0.323   2.476 -0.0112 -0.3864  0.6963
  399SOL    HW1 1196   2.352   0.246   2.512  1.4022 -1.2430  1.6824
  399SOL    HW2 1197   2.448   0.299   2.381 -0.8081  0.5114  1.0576
  400SOL     OW 1198   1.154   2.554   3.401  0.1080  0.3067  0.0620
  400SOL    HW1 1199   1.168   2.571   3.300  2.3353  2.2174 -0.4717
  400SOL    HW2 1200   1.128   2.642   3.450 -2.6009 -0.9218 -1.4591
  401SOL     OW 1201   0.392   1.427   2.887 -0.5684  0.3765 -0.0142
  401SOL    HW1 1202   0.339   1.407   2.801  0.5955 -1.5213 -3.2555
  401SOL    HW2 1203   0.332   1.479   2.953  0.6679 -2.7454  0.4075
  402SOL     OW 1204   0.142   0.085   0.449  0.0106 -0.1195  0.3289
  402SOL    HW1 1205   0.139  -0.007   0.497  0.3096 -0.1692 -0.8628
  402SOL    HW2 1206   0.051   0.133   0.460  1.4344  2.1569 -1.7233
  403SOL     OW 1207   0.369   1.426   1.844  0.2233 -0.2883 -0.0190
  403SOL    HW1 1208   0.471   1.413   1.834 -1.8403 -0.0841 -5.3803
  403SOL    HW2 1209   0.322   1.437   1.753 -0.7490 -1.1605 -0.9768
  404SOL     OW 1210   2.691   2.958   3.052 -0.7022  0.7457  0.5541
  404SOL    HW1 1211   2.628   3.004   3.118 -0.1089  0.6377 -0.7837
  404SOL    HW2 1212   2.642   2.880   3.004 -1.5586  2.3282  1.0760
  405SOL     OW 1213   0.248   0.504   2.410  0.7213  0.3126 -0.1688
  405SOL    HW1 1214   0.177   0.435   2.435  1.0955 -0.8429  0.9310
  405SOL    HW2 1215   0.254   0.513   2.308  0.6279  0.1329  0.0299
  406SOL     OW 1216   1.472   1.793   3.399 -0.7496  0.1634  0.0116
  406SOL    HW1 1217   1.543   1.858   3.365 -1.0231  1.6058 -2.9937
  406SOL    HW2 1218   1.467   1.798   3.501 -1.9954 -0.9888  1.3128
  407SOL     OW 1219   2.363   0.485   2.954 -0.2635  0.2734  0.1509
  407SOL    HW1 1220   2.333   0.392   2.921 -0.1380  0.5560 -2.2041
  407SOL    HW2 1221   2.285   0.554   2.949 -1.8984  2.3289  0.3060
  408SOL     OW 1222   0.513   3.215   2.730  0.3224  0.1080  0.4382
  408SOL    HW1 1223   0.419   3.189   2.766  1.1550  0.9029 -1.1734
  408SOL    HW2 1224   0.507   3.291   2.661  0.3065  1.4526 -0.4435
  409SOL     OW 1225   3.572   3.025   1.522 -0.0732  0.0685 -0.1732
  409SOL    HW1 1226   3.597   3.116   1.563 -1.5021  1.6614 -0.0654
  409SOL    HW2 1227   3.500   2.978   1.579  0.5794 -0.5363 -1.3739
  410SOL     OW 1228   3.477   2.053   0.461  0.1219  0.2438 -0.0830
  410SOL    HW1 1229   3.560   2.103   0.425  3.0549  0.1191  1.1808
  410SOL    HW2 1230   3.495   1.952   0.460 -0.0611  3.2752  0.6567
  411SOL     OW 1231   2.913   0.143   1.809 -0.5570 -0.5512 -0.5236
  411SOL    HW1 1232   2.821   0.189   1.795  0.3230 -0.9198 -0.3551
  411SOL    HW2 1233   2.902   0.049   1.850 -2.6624 -0.3725 -0.5379
  412SOL     OW 1234   2.645   0.455   1.842  0.5354  0.5949  0.3132
  412SOL    HW1 1235   2.580   0.381   1.811  2.2638 -0.5915  0.1647
  412SOL    HW2 1236   2.615   0.545   1.804  0.0746 -2.4792  0.7922
  413SOL     OW 1237   3.559   0.500   2.845  0.2111  0.0404 -0.2740
  413SOL    HW1 1238   3.581   0.601   2.863 -0.3613  0.2782  1.6686
  413SOL    HW2 1239   3.595   0.442   2.923 -2.9506  0.7299 -3.0226
  414SOL     OW 1240   3.179   1.646   0.349  0.3759  0.5379  0.4598
  414SOL    HW1 1241   3.137   1.564   0.395  0.4147 -2.6401 -1.3725
  414SOL    HW2 1242   3.150   1.730   0.401  0.3366  0.7313 -2.3883
  415SOL     OW 1243   0.960   2.952   0.180  0.3281  0.1349  0.0723
  415SOL    HW1 1244   1.001   3.046   0.179  1.2081 -1.4042  0.6593
  415SOL    HW2 1245   0.977   2.905   0.271  2.4588  1.1544 -0.1298
  416SOL     OW 1246   1.725   3.156   3.066 -0.1117 -0.0461  0.6365
  416SOL    HW1 1247   1.677   3.088   3.126  1.0075 -2.6604 -1.8407
  416SOL    HW2 1248   1.819   3.187   3.101 -1.4692  0.9063  0.3420
  417SOL     OW 1249   0.305   1.173   1.462 -0.0688  0.0928 -0.3190
  417SOL    HW1 1250   0.290   1.143   1.363  0.4711 -0.6771 -0.5200
  417SOL    HW2 1251   0.398   1.151   1.499  1.1666 -0.0746 -1.0889
  418SOL     OW 1252   3.105   0.098   0.820 -0.1944  0.0040  0.5471
  418SOL    HW1 1253   3.012   0.057   0.818 -0.9256  2.6985  1.2284
  418SOL    HW2 1254   3.132   0.125   0.917  0.5540 -3.7464  2.3273
  419SOL     OW 1255   0.311   0.020   0.224  0.3841 -0.0435  0.0512
  419SOL    HW1 1256   0.251   0.054   0.300  0.0845  0.3393  1.5263
  419SOL    HW2 1257   0.409   0.004   0.254  3.3462  2.3981  0.8072
  420SOL     OW 1258   0.141   1.406   1.546 -0.1271  0.3956 -0.8489
  420SOL    HW1 1259   0.200   1.329   1.512  0.7476 -0.8251  1.2792
  420SOL    HW2 1260   0.053   1.368   1.584  2.4074  3.0282  0.9048
  421SOL     OW 1261   2.090   3.074   0.779  0.4860 -0.0285 -0.8322
  421SOL    HW1 1262   2.123   2.990   0.731 -0.2259  1.2272  0.4597
  421SOL    HW2 1263   2.003   3.057   0.831  1.1484 -0.3700  0.3033
  422SOL     OW 1264   0.219   0.458   1.781  0.6132 -0.2079  0.2289
  422SOL    HW1 1265   0.282   0.439   1.702  0.5172 -3.8007 -1.0465
  422SOL    HW2 1266   0.149   0.526   1.754 -0.4700 -0.1618  1.7028
  423SOL     OW 1267   1.213   1.623   2.368  0.1293 -0.3561  0.2733
  423SOL    HW1 1268   1.232   1.574   2.279 -4.0134  1.3765  0.8223
  423SOL    HW2 1269   1.218   1.725   2.358  2.1768  0.4334  2.2501
  424SOL     OW 1270   2.048   2.452   0.715  0.1938  0.4147 -0.4326
  424SOL    HW1 1271   2.013   2.427   0.622  0.2859 -0.8881 -0.9176
  424SOL    HW2 1272   1.994   2.406   0.791 -3.2487 -1.9773  0.7401
  425SOL     OW 1273   3.362   3.383   2.397  0.0744 -0.3013 -0.6894
  425SOL    HW1 1274   3.268   3.375   2.439 -0.3603 -0.9897  0.3235
  425SOL    HW2 1275   3.376   3.467   2.340  1.1204 -0.1234 -2.1813
  426SOL     OW 1276   0.388   3.392   3.176  0.1850 -0.5952  0.3893
  426SOL    HW1 1277   0.356   3.398   3.273 -2.2498 -1.7131  1.1085
  426SOL    HW2 1278   0.316   3.429   3.114 -2.3210  1.6313 -0.9067
  427SOL     OW 1279   1.218   3.580   0.093  0.6090 -0.6351 -0.2837
  427SOL    HW1 1280   1.139   3.617   0.148  0.4231  0.9613 -2.0908
  427SOL    HW2 1281   1.188   3.501   0.034  0.0867 -0.1487  0.3286
  428SOL     OW 1282   3.318   0.581   1.795 -0.6743 -1.0823 -0.4389
  428SOL    HW1 1283   3.334   0.484   1.826  3.0082  0.6372 -1.0051
  428SOL    HW2 1284   3.255   0.581   1.714 -2.4878  0.9196 -1.9043
  429SOL     OW 1285   2.437   3.467   0.631  0.0918  0.0766 -0.6402
  429SOL    HW1 1286   2.394   3.383   0.588  2.9451  1.8881 -1.3238
  429SOL    HW2 1287   2.533   3.484   0.598 -1.9457 -2.1464  1.0754
  430SOL     OW 1288   1.286   1.610   3.218 -0.4891  0.1115  0.2544
  430SOL    HW1 1289   1.346   1.671   3.277  0.8203  0.6116  2.5503
  430SOL    HW2 1290   1.269   1.653   3.125  0.5469  2.1664  2.6423
  431SOL     OW 1291   3.221   2.640   1.393  0.3760 -0.0266  0.6348
  431SOL    HW1 1292   3.321   2.666   1.381  0.5187  0.2582  2.1665
  431SOL    HW2 1293   3.189   2.601   1.303  0.4766 -0.8979 -0.1787
  432SOL     OW 1294   1.861   2.789   3.312 -0.5629  0.1027  0.8892
  432SOL    HW1 1295   1.898   2.755   3.222  0.1050 -0.8800 -1.9183
  432SOL    HW2 1296   1.850   2.715   3.384 -0.1752  0.6835 -1.3072
  433SOL     OW 1297   1.434   0.469   3.012 -0.5768  0.5665  0.3582
  433SOL    HW1 1298   1.425   0.501   2.913 -1.1001  2.2321 -1.3746
  433SOL    HW2 1299   1.530   0.469   3.052  1.7120  1.8589  1.4444
  434SOL     OW 1300   1.488   3.264   2.510 -0.5435 -0.2728 -0.3290
  434SOL    HW1 1301   1.518   3.280   2.609 -1.0181  0.0786 -0.9796
  434SOL    HW2 1302   1.573   3.227   2.462 -0.4549 -2.1017 -2.8061
  435SOL     OW 1303   0.316   0.050   3.527 -0.1922 -0.0437 -0.1799
  435SOL    HW1 1304   0.335   0.050   3.629  0.1350  1.8054  0.8691
  435SOL    HW2 1305   0.233   0.109   3.505 -0.5630 -0.9357 -1.8436
  436SOL     OW 1306   0.701   1.484   2.845  0.4073 -0.0994 -0.0833
  436SOL    HW1 1307   0.600   1.480   2.866 -1.8489  0.9947  1.5216
  436SOL    HW2 1308   0.724   1.550   2.770  0.5981 -4.1631  1.5870
  437SOL     OW 1309   1.376   2.860   2.994  0.0414  0.5231 -0.3706
  437SOL    HW1 1310   1.419   2.840   2.902 -1.9410  1.7868 -4.8389
  437SOL    HW2 1311   1.316   2.943   2.991 -1.0976  4.6655  2.4863
  438SOL     OW 1312   0.708   1.018   0.784 -0.2745 -0.6331  0.1761
  438SOL    HW1 1313   0.655   0.977   0.863 -1.1193  0.1072 -1.4786
  438SOL    HW2 1314   0.772   0.947   0.745  1.3527 -2.6134 -0.4189
  439SOL     OW 1315   3.563   1.751   2.465  0.2284 -0.0530  0.8956
  439SOL    HW1 1316   3.489   1.694   2.507  0.1613  0.1506 -0.6159
  439SOL    HW2 1317   3.537   1.851   2.453 -0.8519 -0.5752 -0.2845
  440SOL     OW 1318   3.337   0.921   3.242  0.6784 -0.5177  0.0289
  440SOL    HW1 1319   3.312   0.848   3.175  1.5364 -0.9631 -1.7919
  440SOL    HW2 1320   3.278   1.004   3.235  2.9209  0.0007 -2.7528
  441SOL     OW 1321   0.734   2.133   1.682  0.1382  0.7091 -0.3078
  441SOL    HW1 1322   0.631   2.124   1.680  3.1710  1.6664  0.8385
  441SOL    HW2 1323   0.757   2.224   1.728 -2.3935 -1.0458 -0.8565
  442SOL     OW 1324   2.276   1.696   0.870  0.1925 -0.5960  0.4670
  442SOL    HW1 1325   2.280   1.651   0.778 -0.2793 -3.5557 -1.8299
  442SOL    HW2 1326   2.187   1.744   0.886 -4.5584 -3.6611  0.7156
  443SOL     OW 1327   2.830   2.503   3.508 -0.7185 -0.1935 -0.0353
  443SOL    HW1 1328   2.772   2.431   3.462 -1.3254  0.0629 -0.6948
  443SOL    HW2 1329   2.924   2.511   3.466 -2.0735  1.4952  0.3829
  444SOL     OW 1330   2.033   1.713   3.476  0.2723  0.6177 -0.2963
  444SOL    HW1 1331   1.983   1.801   3.498 -2.1486 -0.7028 -0.5623
  444SOL    HW2 1332   2.014   1.677   3.382 -0.9904  0.5353 -0.5825
  445SOL     OW 1333   0.493   2.557   2.357 -0.3498 -0.2182 -0.0851
  445SOL    HW1 1334   0.562   2.629   2.385  2.0349  0.3405 -1.7846
  445SOL    HW2 1335   0.410   2.561   2.420  2.0756 -0.2911  3.1097
  446SOL     OW 1336   1.133   1.211   2.083 -0.2993  0.0678  0.2602
  446SOL    HW1 1337   1.219   1.159   2.063 -3.8930  2.0907  0.9592
  446SOL    HW2 1338   1.082   1.171   2.164 -1.3539  0.6493  0.7239
  447SOL     OW 1339   0.873   0.797   0.652  0.6960 -0.1899  0.0055
  447SOL    HW1 1340   0.795   0.740   0.615  0.8459 -0.1372  0.8989
  447SOL    HW2 1341   0.947   0.817   0.584 -0.7637  2.0506 -2.0966
  448SOL     OW 1342   1.578   1.229   2.359  0.1386 -0.1876  0.3206
  448SOL    HW1 1343   1.543   1.292   2.286 -0.0861 -2.3142 -0.1258
  448SOL    HW2 1344   1.670   1.189   2.334  0.3759  3.2035  0.3500
  449SOL     OW 1345   0.193   1.890   2.841  0.1943  0.6205  0.1762
  449SOL    HW1 1346   0.157   1.931   2.929 -0.4989  0.4580  1.0603
  449SOL    HW2 1347   0.186   1.959   2.765 -0.6428  1.8424 -0.8816
  450SOL     OW 1348   2.583   1.651   2.242  0.4349  0.3154  0.1191
  450SOL    HW1 1349   2.575   1.717   2.322  1.8628 -4.2981  1.6984
  450SOL    HW2 1350   2.678   1.650   2.199  0.5303 -2.4121  1.0077
  451SOL     OW 1351   2.781   1.710   1.599  0.7003 -0.4093  0.3185
  451SOL    HW1 1352   2.816   1.628   1.651 -0.5731 -1.8736 -0.5333
  451SOL    HW2 1353   2.834   1.727   1.512 -0.7621 -0.3391 -2.0080
  452SOL     OW 1354   0.891   1.154   1.579  0.0056 -0.2146 -0.0953
  452SOL    HW1 1355   0.916   1.150   1.678 -1.6092 -2.1820 -1.2245
  452SOL    HW2 1356   0.976   1.176   1.523  1.1297  1.3302  0.2047
  453SOL     OW 1357   0.337   2.388   1.202  0.4790  0.4520 -0.0574
  453SOL    HW1 1358   0.245   2.392   1.248  0.4789 -1.5178  0.6842
  453SOL    HW2 1359   0.340   2.366   1.101 -0.6485  0.8902 -1.7960
  454SOL     OW 1360   1.411   1.476   0.334  0.5575  0.2435 -0.0788
  454SOL    HW1 1361   1.494   1.535   0.319 -0.2266 -0.2919  0.6852
  454SOL    HW2 1362   1.427   1.412   0.413 -1.2440  2.0609  1.7138
  455SOL     OW 1363   2.112   0.529   0.958  0.1315  0.4237 -0.0874
  455SOL    HW1 1364   2.122   0.431   0.927 -0.9369 -1.3498 -0.2919
  455SOL    HW2 1365   2.144   0.598   0.888 -0.4272 -1.4132  0.1908
  456SOL     OW 1366   2.141   3.351   0.302  0.2215  0.4115  0.3241
  456SOL    HW1 1367   2.066   3.282   0.279 -2.4115  1.5601 -3.7804
  456SOL    HW2 1368   2.111   3.451   0.293  0.4273  2.1267  1.3289
  457SOL     OW 1369   2.443   1.351   2.382 -0.0023 -0.3546  0.1782
  457SOL    HW1 1370   2.475   1.434   2.328 -0.0352  3.2197 -0.7178
  457SOL    HW2 1371   2.483   1.350   2.476 -1.1126  0.3264  1.6132
  458SOL     OW 1372   2.979   0.600   2.799 -0.1797  0.5546  0.3011
  458SOL    HW1 1373   2.892   0.624   2.849 -0.2046 -3.3444  2.1425
  458SOL    HW2 1374   2.994   0.667   2.722 -3.8307 -0.5938 -2.7483
  459SOL     OW 1375   2.891   1.839   3.041  0.2193 -0.1633  0.2959
  459SOL    HW1 1376   2.968   1.851   3.108  0.3857 -1.2890  1.7642
  459SOL    HW2 1377   2.887   1.743   3.004 -0.1018  1.0392  3.0390
  460SOL     OW 1378   1.157   1.056   2.948  0.0492  1.1622 -0.2161
  460SOL    HW1 1379   1.181   1.123   2.871  0.6996 -1.6971  0.4817
  460SOL    HW2 1380   1.189   1.094   3.039 -2.1412  0.3980 -0.2215
  461SOL     OW 1381   0.108   2.747   0.213  0.3327  0.0188 -0.1123
  461SOL    HW1 1382   0.178   2.813   0.250  0.5064 -2.5224  1.9857
  461SOL    HW2 1383   0.020   2.795   0.189 -1.2509  0.8071 -2.6253
  462SOL     OW 1384   1.641   3.297   2.816  0.3746 -0.3516  0.2854
  462SOL    HW1 1385   1.663   3.238   2.898 -4.6138 -1.1233  3.2523
  462SOL    HW2 1386   1.715   3.366   2.799 -0.2314  1.2452 -0.8161
  463SOL     OW 1387   2.465   2.509   2.302 -0.1719 -0.0131  0.1792
  463SOL    HW1 1388   2.397   2.432   2.307 -1.1320  2.0286  1.2359
  463SOL    HW2 1389   2.559   2.474   2.323 -2.4436  0.0544 -1.7120
  464SOL     OW 1390   3.055   2.893   0.918  0.5945 -0.5158  0.1123
  464SOL    HW1 1391   2.956   2.870   0.899 -1.0566 -2.2971 -0.1391
  464SOL    HW2 1392   3.073   2.993   0.931  0.0151  0.7122 -1.3945
  465SOL     OW 1393   0.006   0.165   1.710 -0.3232 -0.6054  0.3954
  465SOL    HW1 1394   0.046   0.109   1.634  1.4672  0.9009 -0.5841
  465SOL    HW2 1395   0.079   0.193   1.777 -1.5047 -0.7906  0.3189
  466SOL     OW 1396   1.622   2.959   3.244 -0.1624 -0.2883 -0.0291
  466SOL    HW1 1397   1.703   2.903   3.275  0.4475 -4.0057 -1.1253
  466SOL    HW2 1398   1.549   2.910   3.189  2.0148  0.9862 -1.6691
  467SOL     OW 1399   0.009   2.453   0.298 -0.0542  0.1573 -0.5018
  467SOL    HW1 1400  -0.059   2.427   0.225  1.0290  1.9006  1.1930
  467SOL    HW2 1401   0.041   2.550   0.284  1.7858  1.1512 -1.8704
  468SOL     OW 1402   2.457   2.715   3.342  0.1679 -0.4259 -0.6964
  468SOL    HW1 1403   2.512   2.665   3.270  1.3822  0.1687 -0.8744
  468SOL    HW2 1404   2.377   2.765   3.298  1.9354  1.0055  0.6546
  469SOL     OW 1405   1.027   2.208   0.846  0.3317 -0.7131  0.8187
  469SOL    HW1 1406   0.976   2.226   0.934  0.3167  1.3226 -0.3998
  469SOL    HW2 1407   1.083   2.289   0.815 -0.8294  2.6129 -1.0229
  470SOL     OW 1408   2.306   0.815   0.782  0.2362 -0.1248  0.0351
  470SOL    HW1 1409   2.373   0.773   0.715 -1.6292  0.0877  0.1874
  470SOL    HW2 1410   2.340   0.833   0.879  1.6233 -1.6082  0.2851
  471SOL     OW 1411   0.369   2.202   0.628  0.6662 -0.5967  0.3784
  471SOL    HW1 1412   0.445   2.201   0.559  2.3932  2.4523 -1.9696
  471SOL    HW2 1413   0.369   2.293   0.679  0.2512 -0.1041 -0.2158
  472SOL     OW 1414   3.087   2.523   3.403  0.1568 -0.0615 -0.0302
  472SOL    HW1 1415   3.150   2.561   3.475 -1.5066  0.2804 -3.5742
  472SOL    HW2 1416   3.118   2.547   3.308  1.0979 -0.8836 -0.1258
  473SOL     OW 1417   1.687   2.096   0.913 -0.0033  0.5600 -0.2304
  473SOL    HW1 1418   1.765   2.163   0.908  0.1305 -0.8556 -1.8247
  473SOL    HW2 1419   1.644   2.088   0.820  0.4786  0.6122  2.9532
  474SOL     OW 1420   3.340   0.538   1.381 -1.1243  0.0967 -0.9965
  474SOL    HW1 1421   3.324   0.519   1.280 -1.3935  2.9360  1.2409
  474SOL    HW2 1422   3.412   0.476   1.419  0.1668  1.5146 -0.2016
  475SOL     OW 1423   3.425   3.616   2.177  0.3073  1.5890  0.6351
  475SOL    HW1 1424   3.429   3.572   2.085 -0.1006 -0.9827 -3.1093
  475SOL    HW2 1425   3.356   3.692   2.171 -1.4113  0.5927  0.8775
  476SOL     OW 1426   0.653   0.338   1.084 -0.1922 -0.1382  0.5543
  476SOL    HW1 1427   0.708   0.423   1.064 -0.9157  0.0263 -1.0907
  476SOL    HW2 1428   0.635   0.286   0.996 -0.8379  0.3313 -0.7934
  477SOL     OW 1429   1.409   2.912   1.365 -0.1158 -0.2015 -0.1955
  477SOL    HW1 1430   1.399   2.907   1.468  0.6053  1.4726  0.4198
  477SOL    HW2 1431   1.508   2.888   1.345 -0.5887  1.5913 -1.0361
  478SOL     OW 1432   1.383   3.169   0.113 -0.3913  0.5107  0.4692
  478SOL    HW1 1433   1.403   3.177   0.012  2.0214  0.9432  0.0325
  478SOL    HW2 1434   1.444   3.230   0.169 -1.1694  0.9668 -0.6124
  479SOL     OW 1435   2.996   1.367   2.530 -0.2527 -0.0766  0.0733
  479SOL    HW1 1436   2.921   1.306   2.566 -2.9535 -2.3658 -0.5993
  479SOL    HW2 1437   3.031   1.336   2.438 -0.0953  3.0460  0.1298
  480SOL     OW 1438   3.171   2.633   3.146 -0.0306 -0.1159 -0.0676
  480SOL    HW1 1439   3.198   2.619   3.047 -2.2709  0.3948 -1.5462
  480SOL    HW2 1440   3.082   2.684   3.150  0.8522 -0.0974  1.5158
  481SOL     OW 1441   1.898   3.117   1.948  0.1031 -0.2663  0.1971
  481SOL    HW1 1442   1.980   3.073   1.993 -0.9404 -2.6028 -0.0580
  481SOL    HW2 1443   1.909   3.130   1.845 -1.5528  0.6281  0.0035
  482SOL     OW 1444   1.815   2.636   2.681  0.2678 -0.4757 -0.1897
  482SOL    HW1 1445   1.783   2.595   2.593  0.7194  1.2091  0.3320
  482SOL    HW2 1446   1.836   2.736   2.672 -3.5281 -1.3574  1.0434
  483SOL     OW 1447   1.414   3.185   3.441 -0.1844  0.1557 -0.0858
  483SOL    HW1 1448   1.379   3.220   3.350  1.0607  0.0304 -1.0394
  483SOL    HW2 1449   1.490   3.116   3.418  0.6478 -0.6325  1.8912
  484SOL     OW 1450   2.880   3.494   1.948  0.0053  0.3186 -0.1198
  484SOL    HW1 1451   2.787   3.452   1.961  0.2886  0.4019 -0.0172
  484SOL    HW2 1452   2.948   3.418   1.933 -0.0623 -0.6602  1.5992
  485SOL     OW 1453   2.344   0.614   0.410  0.0508  0.0663  0.6566
  485SOL    HW1 1454   2.318   0.705   0.368  0.5429  0.1608 -2.0509
  485SOL    HW2 1455   2.260   0.561   0.438  0.1986  0.0411 -0.0796
  486SOL     OW 1456   2.771   3.190   2.902 -0.3512  0.1013  0.0825
  486SOL    HW1 1457   2.815   3.262   2.962  1.5094  0.2794 -0.8775
  486SOL    HW2 1458   2.744   3.105   2.951  0.2235 -1.1012  3.0814
  487SOL     OW 1459   1.439   0.991   0.849  0.6834  0.2589 -0.5974
  487SOL    HW1 1460   1.384   1.033   0.774  1.6411 -2.8663 -0.5303
  487SOL    HW2 1461   1.382   0.991   0.936 -0.4065 -2.6553 -0.5195
  488SOL     OW 1462   3.147   3.414   2.767  0.1518  0.6205  0.3591
  488SOL    HW1 1463   3.126   3.393   2.669  1.9334 -1.0095  0.3708
  488SOL    HW2 1464   3.109   3.508   2.787 -0.8988  0.0180  0.3601
  489SOL     OW 1465   1.402   3.241   0.524  0.4829 -0.1918  0.2067
  489SOL    HW1 1466   1.358   3.315   0.580  0.4814 -1.8979  1.1824
  489SOL    HW2 1467   1.338   3.159   0.522 -0.6653  1.8119 -2.0370
  490SOL     OW 1468   1.847   0.782   3.544  0.2291 -0.5207  0.0383
  490SOL    HW1 1469   1.861   0.831   3.454 -1.3408  0.9063  0.0256
  490SOL    HW2 1470   1.749   0.783   3.578 -1.0873 -0.1296  1.2010
  491SOL     OW 1471   1.072   0.052   1.442  0.4142 -0.1965 -0.3193
  491SOL    HW1 1472   0.988   0.097   1.400  1.6808  0.7376  1.0228
  491SOL    HW2 1473   1.054   0.015   1.536 -3.8768  2.2115 -0.1434
  492SOL     OW 1474   1.907   3.201   0.237 -0.4899  0.0219 -0.0121
  492SOL    HW1 1475   1.838   3.173   0.308 -2.4315 -1.2023 -1.5455
  492SOL    HW2 1476   1.852   3.264   0.174  0.5467 -1.7101 -0.4413
  493SOL     OW 1477   1.202   2.302   3.518  0.2525 -0.0548  0.9351
  493SOL    HW1 1478   1.220   2.237   3.440  2.2198  0.3320  0.5464
  493SOL    HW2 1479   1.181   2.394   3.480 -0.2029  1.6412  1.6301
  494SOL     OW 1480   0.881   0.330   0.593 -0.0677 -0.4796 -0.3765
  494SOL    HW1 1481   0.792   0.314   0.543 -0.7887  0.1098 -0.3893
  494SOL    HW2 1482   0.928   0.417   0.559 -1.2039  1.0907 -1.0002
  495SOL     OW 1483   3.246   0.202   2.149  0.0651 -0.1650 -0.1876
  495SOL    HW1 1484   3.267   0.246   2.058  0.3734 -1.3064 -0.7397
  495SOL    HW2 1485   3.243   0.275   2.223  0.2850 -2.3523  0.1196
  496SOL     OW 1486   2.720   2.235   2.872  0.0150  0.0138 -0.2866
  496SOL    HW1 1487   2.660   2.219   2.789  0.8058 -1.5608  1.4686
  496SOL    HW2 1488   2.814   2.201   2.847  0.1976  1.2614 -0.6462
  497SOL     OW 1489   1.837   1.384   3.191  0.2641 -0.4692  0.1729
  497SOL    HW1 1490   1.919   1.445   3.174 -1.7529  3.1778  1.9835
  497SOL    HW2 1491   1.775   1.423   3.264  0.0263 -0.3781  0.3684
  498SOL     OW 1492   0.896   3.270   1.491 -0.7617 -0.3873 -0.0313
  498SOL    HW1 1493   0.824   3.336   1.456 -2.4751  1.8058  1.1459
  498SOL    HW2 1494   0.860   3.174   1.492  2.5095  2.0731 -1.6729
  499SOL     OW 1495   0.067   2.356   1.299 -0.1599  0.1131  0.1114
  499SOL    HW1 1496   0.019   2.324   1.214 -0.4301 -2.6502  1.9328
  499SOL    HW2 1497   0.044   2.289   1.373  2.2961 -2.1053 -0.8540
  500SOL     OW 1498   0.826   3.180   3.165 -0.2862 -0.0258 -0.8105
  500SOL    HW1 1499   0.733   3.139   3.186 -0.7655 -0.1093  0.5754
  500SOL    HW2 1500   0.827   3.226   3.072  1.4980  2.0163  0.6900
  501SOL     OW 1501   1.976   3.617   0.049 -0.5219  0.1140  0.2863
  501SOL    HW1 1502   2.030   3.705   0.059  1.4468 -0.0299 -0.2621
  501SOL    HW2 1503   1.918   3.595   0.131 -1.2291  2.5203  0.3674
  502SOL     OW 1504   3.554   0.132   0.881 -0.0623 -0.2847  0.1251
  502SOL    HW1 1505   3.517   0.222   0.844  1.9236 -0.6633 -0.4549
  502SOL    HW2 1506   3.642   0.147   0.934 -1.8045  0.5176 -0.3476
  503SOL     OW 1507   2.323   3.446   2.545 -0.5947 -0.1888  0.7415
  503SOL    HW1 1508   2.398   3.405   2.601  1.0785  3.8882 -1.4606
  503SOL    HW2 1509   2.237   3.390   2.557  3.3365 -0.0763  0.9410
  504SOL     OW 1510   2.850   1.701   2.137 -0.3319  1.3205  0.5772
  504SOL    HW1 1511   2.826   1.790   2.092 -1.3081  2.2942 -0.7466
  504SOL    HW2 1512   2.920   1.644   2.087 -0.2480  0.4649  0.2128
  505SOL     OW 1513   2.022   3.284   2.617 -0.6385 -0.3719  0.2699
  505SOL    HW1 1514   1.975   3.351   2.680 -2.2827 -0.3367  1.1894
  505SOL    HW2 1515   1.962   3.260   2.536  1.4311 -0.0100  3.2017
  506SOL     OW 1516   0.247   0.816   2.532  0.2787  0.1185 -0.2801
  506SOL    HW1 1517   0.243   0.721   2.493 -0.0913 -5.3684  4.7498
  506SOL    HW2 1518   0.308   0.810   2.614  0.3801  0.5832  1.7524
  507SOL     OW 1519   2.080   0.497   0.448  0.4116  0.1260 -0.9137
  507SOL    HW1 1520   2.039   0.582   0.410 -3.0482 -0.8725  0.8107
  507SOL    HW2 1521   2.012   0.453   0.512  1.2023 -0.4100  0.4819
  508SOL     OW 1522   2.448   0.562   2.130  0.0381 -0.3675  0.3730
  508SOL    HW1 1523   2.429   0.645   2.072 -0.4319  0.4120  0.9122
  508SOL    HW2 1524   2.531   0.576   2.192  0.0529  1.0005  2.0094
  509SOL     OW 1525   0.788   2.250   3.587 -0.1441 -0.7131 -0.3608
  509SOL    HW1 1526   0.870   2.204   3.631 -1.8350  1.3875  0.7724
  509SOL    HW2 1527   0.704   2.215   3.638 -0.4949 -0.5388  2.4977
  510SOL     OW 1528   0.293   1.089   1.190 -0.3614  0.2880 -0.7894
  510SOL    HW1 1529   0.207   1.066   1.139 -1.3960  3.0092 -1.6109
  510SOL    HW2 1530   0.354   1.142   1.126 -0.8024 -0.3131  3.8134
  511SOL     OW 1531   1.768   1.224   1.437 -0.1565 -0.0701  0.3419
  511SOL    HW1 1532   1.849   1.161   1.432 -0.1144  0.0922 -3.4937
  511SOL    HW2 1533   1.783   1.315   1.393  0.3911 -1.9853 -3.6113
  512SOL     OW 1534   0.406   2.457   0.757 -0.2925 -0.3307 -0.1525
  512SOL    HW1 1535   0.349   2.515   0.818 -1.5249  0.1630 -0.6953
  512SOL    HW2 1536   0.506   2.476   0.767 -1.1650  1.5343 -3.0494
  513SOL     OW 1537   0.293   2.823   1.141 -0.2312  0.0439  0.2273
  513SOL    HW1 1538   0.245   2.822   1.233 -0.6335 -4.5574  1.0837
  513SOL    HW2 1539   0.303   2.920   1.107 -1.3405 -1.6690  2.2916
  514SOL     OW 1540   0.704   2.505   0.761 -0.5307 -0.1167 -0.2807
  514SOL    HW1 1541   0.772   2.550   0.824 -1.9139  1.1106 -0.9587
  514SOL    HW2 1542   0.750   2.467   0.676 -1.5055 -1.4035  2.0347
  515SOL     OW 1543   3.514   0.360   3.516  0.2358  0.3162 -0.2875
  515SOL    HW1 1544   3.425   0.335   3.563  0.7653  0.2946 -2.8539
  515SOL    HW2 1545   3.564   0.441   3.561  1.6419  1.4910 -2.6581
  516SOL     OW 1546   2.540   3.596   1.585  0.6615 -0.5285  0.5429
  516SOL    HW1 1547   2.482   3.533   1.640 -2.8621 -1.6749  2.3644
  516SOL    HW2 1548   2.507   3.596   1.487  0.8575 -0.5157 -1.7647
  517SOL     OW 1549   2.039   1.842   0.890 -0.1335 -0.1477 -0.1434
  517SOL    HW1 1550   2.076   1.917   0.830 -1.0704  1.9841  0.7474
  517SOL    HW2 1551   2.009   1.875   0.984  1.3475 -0.2331 -1.0838
  518SOL     OW 1552   2.123   3.321   0.963  0.3662 -0.5994  0.2729
  518SOL    HW1 1553   2.088   3.283   1.054 -2.0145  0.3854 -1.6323
  518SOL    HW2 1554   2.120   3.248   0.891 -2.0305 -1.1440  0.3366
  519SOL     OW 1555   3.426   2.933   0.140  0.3514  0.0228  0.7471
  519SOL    HW1 1556   3.387   2.959   0.233 -1.9446  0.2743  2.2703
  519SOL    HW2 1557   3.447   3.017   0.080 -1.3815 -1.2193  0.9065
  520SOL     OW 1558   2.654   1.926   2.524  0.0159  0.3921  0.0297
  520SOL    HW1 1559   2.619   2.018   2.554  1.0213  2.7395  2.2195
  520SOL    HW2 1560   2.621   1.852   2.586  0.7904  0.2739  2.1570
  521SOL     OW 1561   1.743   3.449   2.251 -0.2597 -0.0928 -0.0430
  521SOL    HW1 1562   1.766   3.452   2.150 -0.6327  1.3012 -1.3428
  521SOL    HW2 1563   1.647   3.485   2.267 -1.8161 -0.7764  1.0521
  522SOL     OW 1564   0.365   3.034   2.227 -0.2913 -0.2674 -0.1669
  522SOL    HW1 1565   0.322   2.973   2.299  0.7107 -3.0685 -2.8756
  522SOL    HW2 1566   0.297   3.107   2.202  1.1468  2.5355 -0.4071
  523SOL     OW 1567   0.691   2.821   2.506 -0.1079  0.0317  0.3390
  523SOL    HW1 1568   0.688   2.864   2.600  2.9209  0.6733  1.3745
  523SOL    HW2 1569   0.698   2.897   2.437  1.6208 -2.5808 -1.2697
  524SOL     OW 1570   2.646   2.542   0.427 -0.1178 -0.5411  0.1614
  524SOL    HW1 1571   2.579   2.472   0.393 -1.0279 -2.6739 -4.1924
  524SOL    HW2 1572   2.631   2.562   0.527 -2.4642  0.1367  1.8938
  525SOL     OW 1573   3.120   0.762   3.032 -0.0736  0.9131 -0.4944
  525SOL    HW1 1574   3.092   0.697   2.956  0.0040  0.0430 -0.2900
  525SOL    HW2 1575   3.076   0.733   3.120 -0.0162  1.9889  0.2934
  526SOL     OW 1576   0.489   2.885   0.524  0.6826 -0.0324 -0.2062
  526SOL    HW1 1577   0.583   2.887   0.567  2.0773  0.1291 -1.1208
  526SOL    HW2 1578   0.443   2.795   0.541 -0.6379  2.1772  1.9972
  527SOL     OW 1579   3.404   1.271   1.072  0.3392  0.1419 -0.1663
  527SOL    HW1 1580   3.334   1.311   1.007 -1.8232  0.9521 -1.8355
  527SOL    HW2 1581   3.358   1.201   1.132  0.2519 -0.6312  2.1129
  528SOL     OW 1582   1.326   1.548   2.690  0.6812 -0.0100 -0.2891
  528SOL    HW1 1583   1.295   1.573   2.594  0.4744  0.1501  1.4920
  528SOL    HW2 1584   1.283   1.613   2.757 -0.0174  1.7539  1.4551
  529SOL     OW 1585   1.003   1.585   0.545 -0.0360 -0.1312 -0.3468
  529SOL    HW1 1586   1.053   1.597   0.635 -1.7476 -0.4854 -1.1778
  529SOL    HW2 1587   0.974   1.485   0.540  1.2029 -0.6176 -1.2612
  530SOL     OW 1588   1.629   0.641   1.980  0.3185 -0.4374  0.2071
  530SOL    HW1 1589   1.695   0.691   1.921 -0.9980 -1.9746 -0.7147
  530SOL    HW2 1590   1.676   0.574   2.043 -0.1265  0.1260 -0.6849
  531SOL     OW 1591   1.300   2.624   0.303  0.5176 -0.0288  0.3199
  531SOL    HW1 1592   1.308   2.702   0.237  0.2538 -2.2149  0.4532
  531SOL    HW2 1593   1.385   2.619   0.361 -3.0949  1.1316 -1.2510
  532SOL     OW 1594   3.092   0.984   2.818 -0.4232  0.4610 -0.5988
  532SOL    HW1 1595   3.106   0.928   2.903 -1.1246 -1.6838  1.3449
  532SOL    HW2 1596   3.175   1.045   2.803 -1.7007 -1.5989 -0.8142
  533SOL     OW 1597   0.045   0.317   2.471  0.5335  0.2636  0.2242
  533SOL    HW1 1598  -0.045   0.334   2.519  1.2472 -0.4159  1.4951
  533SOL    HW2 1599   0.042   0.239   2.403  2.6119  0.2212  0.8868
  534SOL     OW 1600   2.633   0.235   3.277 -0.0098  0.5816  0.3815
  534SOL    HW1 1601   2.706   0.248   3.348  0.0584  1.4846  1.8490
  534SOL    HW2 1602   2.646   0.145   3.230  2.8229 -1.7942  0.3976
  535SOL     OW 1603   0.257   0.437   3.598 -0.1720  0.1935 -0.0410
  535SOL    HW1 1604   0.335   0.404   3.657 -2.5614 -0.2458  0.3327
  535SOL    HW2 1605   0.288   0.451   3.500  1.7274 -0.1389  0.2946
  536SOL     OW 1606   1.288   2.418   1.327 -0.1767 -0.2008 -0.1909
  536SOL    HW1 1607   1.209   2.403   1.391 -1.4318  0.0221 -1.0288
  536SOL    HW2 1608   1.282   2.510   1.277 -0.6578  2.1965 -1.6197
  537SOL     OW 1609   3.256   2.987   1.723 -0.0283  0.3900 -0.2831
  537SOL    HW1 1610   3.290   3.057   1.790 -1.1982  1.2727  2.7074
  537SOL    HW2 1611   3.196   2.918   1.773 -0.6896  1.1075  1.5609
  538SOL     OW 1612   0.752   2.897   0.652  0.3094 -0.4061  0.4985
  538SOL    HW1 1613   0.788   2.816   0.706 -1.7080  3.0543  0.6333
  538SOL    HW2 1614   0.811   2.982   0.657  0.0197 -0.5704  0.0199
  539SOL     OW 1615   2.149   1.524   2.899  0.3336 -0.0195  0.3233
  539SOL    HW1 1616   2.077   1.490   2.833 -1.7646 -1.0378 -2.1731
  539SOL    HW2 1617   2.204   1.602   2.863 -0.5810  0.0135  1.3869
  540SOL     OW 1618   2.196   0.721   3.372  0.9282  0.5495 -0.1122
  540SOL    HW1 1619   2.248   0.703   3.460 -1.5919 -0.0378  0.2888
  540SOL    HW2 1620   2.178   0.821   3.352  2.0248 -1.1861 -0.0777
  541SOL     OW 1621   1.295   1.274   2.782  0.0940  0.0636 -0.3433
  541SOL    HW1 1622   1.331   1.213   2.708 -0.6219  2.9490 -3.0956
  541SOL    HW2 1623   1.299   1.373   2.753  1.7853 -1.4308  0.7231
  542SOL     OW 1624   1.716   3.017   2.165 -0.1826  0.2954  0.7077
  542SOL    HW1 1625   1.615   3.020   2.152  0.6081 -1.4954 -0.4209
  542SOL    HW2 1626   1.768   3.051   2.083 -1.8054  1.1516  0.5015
  543SOL     OW 1627   0.584   3.299   3.566  0.2140  0.6375 -0.6405
  543SOL    HW1 1628   0.643   3.285   3.482  1.6299  0.3859  1.2320
  543SOL    HW2 1629   0.490   3.331   3.537 -0.6235  2.7613 -0.1883
  544SOL     OW 1630   0.068   2.391   2.523  0.2455 -0.0263 -0.0658
  544SOL    HW1 1631   0.011   2.386   2.609 -1.4311 -1.1465  0.3574
  544SOL    HW2 1632   0.135   2.469   2.540 -0.0999  0.4409  1.4723
  545SOL     OW 1633   1.655   2.205   1.909  0.1364 -0.4728 -0.3243
  545SOL    HW1 1634   1.614   2.219   1.814  2.1454 -1.1737 -0.5298
  545SOL    HW2 1635   1.589   2.157   1.975  1.6524 -1.1095 -0.1754
  546SOL     OW 1636   3.253   0.281   3.074 -0.1459 -0.4631 -0.1581
  546SOL    HW1 1637   3.217   0.304   2.981 -0.1847  1.4419 -2.2125
  546SOL    HW2 1638   3.351   0.316   3.081  0.7575  0.7595 -2.4424
  547SOL     OW 1639   1.894   3.549   0.937  0.7223  0.6509  0.0258
  547SOL    HW1 1640   1.890   3.590   1.032  0.0246 -0.9723 -0.1163
  547SOL    HW2 1641   1.968   3.477   0.936  0.1587  0.3752  1.7601
  548SOL     OW 1642   1.599   2.569   0.102  0.3758  0.0624  0.0791
  548SOL    HW1 1643   1.546   2.481   0.102 -2.4211 -0.2288  1.4784
  548SOL    HW2 1644   1.541   2.651   0.079  2.1743  2.9755 -2.5825
  549SOL     OW 1645   2.328   0.673   0.031  0.0348  0.2102  0.4026
  549SOL    HW1 1646   2.382   0.593   0.069 -0.5473  1.7130 -1.8661
  549SOL    HW2 1647   2.374   0.762   0.054 -1.0421 -0.5154  0.1877
  550SOL     OW 1648   3.019   2.149   1.003 -0.2374  0.2308 -0.0358
  550SOL    HW1 1649   2.945   2.207   0.963 -0.3749  1.9982  2.3854
  550SOL    HW2 1650   3.084   2.123   0.929  2.1528  2.3903  1.7223
  551SOL     OW 1651   1.337   0.289   1.507  0.3200  0.4203 -0.2226
  551SOL    HW1 1652   1.273   0.343   1.565  1.3151 -0.9159  1.3296
  551SOL    HW2 1653   1.282   0.219   1.453 -3.7517 -2.5394  2.5815
  552SOL     OW 1654   0.448   2.159   3.229 -0.1242 -0.1760  0.3731
  552SOL    HW1 1655   0.467   2.101   3.146 -0.4501  1.4284 -0.0782
  552SOL    HW2 1656   0.430   2.100   3.312  0.4478  1.2521  0.8094
  553SOL     OW 1657   2.990   2.847   0.022  0.8762  0.0207  0.0649
  553SOL    HW1 1658   2.899   2.804  -0.002 -2.2862 -0.3652 -0.2098
  553SOL    HW2 1659   2.991   2.869   0.123  0.7083 -0.1871 -1.5347
  554SOL     OW 1660   2.325   1.726   1.713  0.1066  0.0044  0.0594
  554SOL    HW1 1661   2.352   1.695   1.807 -4.4480  3.2116  1.9428
  554SOL    HW2 1662   2.238   1.781   1.722  1.9601  0.6553  1.3224
  555SOL     OW 1663   0.661   2.941   2.771  0.3612 -0.3540 -0.1169
  555SOL    HW1 1664   0.617   2.900   2.854 -0.8247  1.7471  2.1369
  555SOL    HW2 1665   0.616   3.032   2.752  0.9704 -0.2885  0.1850
  556SOL     OW 1666   1.663   1.263   1.726 -0.4914 -0.6664  0.3629
  556SOL    HW1 1667   1.700   1.244   1.632  0.6901 -3.2822  1.2574
  556SOL    HW2 1668   1.646   1.364   1.741 -0.9318  2.1569 -0.4467
  557SOL     OW 1669   1.718   3.464   1.363  0.5945 -0.1593  0.0322
  557SOL    HW1 1670   1.737   3.368   1.327 -1.0849 -2.3114 -0.8908
  557SOL    HW2 1671   1.671   3.463   1.455 -0.1420  0.7077 -2.5406
  558SOL     OW 1672   0.631   0.975   2.764  1.0020  0.2493 -0.3930
  558SOL    HW1 1673   0.555   0.907   2.756  0.3867 -2.9729  1.2186
  558SOL    HW2 1674   0.665   0.975   2.861 -0.0613  1.1784  2.7482
  559SOL     OW 1675   1.112   3.205   0.178 -0.4145  0.2314 -0.0903
  559SOL    HW1 1676   1.093   3.265   0.260  0.1186  0.5700  0.4839
  559SOL    HW2 1677   1.212   3.186   0.162  2.0394  0.1627  1.4757
  560SOL     OW 1678   1.933   2.386   0.445  0.4531  0.1516 -0.2816
  560SOL    HW1 1679   2.002   2.423   0.379 -1.3422  1.1069 -1.0661
  560SOL    HW2 1680   1.842   2.433   0.435 -0.0908  2.6159 -3.8221
  561SOL     OW 1681   1.269   3.447   0.668  0.2865 -0.1919  0.2710
  561SOL    HW1 1682   1.332   3.527   0.660  0.4478  2.4148 -2.0210
  561SOL    HW2 1683   1.225   3.451   0.761 -0.1835  0.1146 -0.9825
  562SOL     OW 1684   0.626   1.232   2.613 -0.4476 -0.1498  0.1526
  562SOL    HW1 1685   0.658   1.303   2.682 -0.8469 -0.6563 -0.2409
  562SOL    HW2 1686   0.626   1.143   2.666 -1.7778 -2.0812 -1.5412
  563SOL     OW 1687   1.434   2.433   2.892 -0.7776  0.5362  0.3041
  563SOL    HW1 1688   1.424   2.427   2.790  1.4791 -1.5332 -1.9350
  563SOL    HW2 1689   1.428   2.339   2.933  0.9376  1.8400 -1.0682
  564SOL     OW 1690   2.920   0.777   1.426 -0.1048  0.1187  0.5348
  564SOL    HW1 1691   2.884   0.733   1.341  0.4587 -0.1501 -1.8728
  564SOL    HW2 1692   2.878   0.871   1.439 -0.7085  2.1984 -0.8090
  565SOL     OW 1693   1.710   1.110   0.399  0.0494 -0.5570 -0.0189
  565SOL    HW1 1694   1.682   1.100   0.300 -1.6865 -0.7149 -1.3980
  565SOL    HW2 1695   1.647   1.171   0.454 -0.4509 -0.6821  0.0168
  566SOL     OW 1696   2.847   3.216   3.409  0.2380  0.2283 -0.0080
  566SOL    HW1 1697   2.921   3.146   3.395  0.1701  0.7504  1.1579
  566SOL    HW2 1698   2.761   3.165   3.430  1.5202  1.1115 -2.7219
  567SOL     OW 1699   2.229   0.910   1.214  0.0480  0.3256 -0.1782
  567SOL    HW1 1700   2.158   0.948   1.279 -0.2519  0.1384 -2.5221
  567SOL    HW2 1701   2.259   0.816   1.241 -0.6831  0.3632 -0.6558
  568SOL     OW 1702   1.349   1.246   3.080  0.2155  0.5711  0.5457
  568SOL    HW1 1703   1.343   1.334   3.135 -0.6825 -1.0703 -0.6226
  568SOL    HW2 1704   1.342   1.257   2.978 -1.0050  1.7404  1.5306
  569SOL     OW 1705   2.475   1.910   0.946 -0.5397  0.3032 -0.8129
  569SOL    HW1 1706   2.405   1.841   0.915  2.3170  2.4383 -1.2380
  569SOL    HW2 1707   2.555   1.866   0.996  1.9047  0.7103  1.3435
  570SOL     OW 1708   2.977   3.011   2.684 -0.6186  0.0607  0.2592
  570SOL    HW1 1709   2.900   3.070   2.722 -2.1081 -0.2960 -0.8969
  570SOL    HW2 1710   2.993   3.035   2.586  1.6864  1.7143 -0.9576
  571SOL     OW 1711   0.006   2.411   1.955 -0.0250 -0.5909 -0.6269
  571SOL    HW1 1712  -0.066   2.414   1.882  1.3538 -1.8156 -3.0012
  571SOL    HW2 1713  -0.038   2.395   2.047 -1.3132  0.1050 -3.4112
  572SOL     OW 1714   1.244   2.602   3.031  0.1521  0.2775 -0.5869
  572SOL    HW1 1715   1.285   2.697   3.038 -1.1915 -0.5732  0.1322
  572SOL    HW2 1716   1.315   2.537   2.994 -0.1769 -1.7650  1.8657
  573SOL     OW 1717   1.834   2.711   1.630 -0.1403 -0.4596 -0.1383
  573SOL    HW1 1718   1.745   2.722   1.681 -1.7163 -1.5933  1.3731
  573SOL    HW2 1719   1.905   2.680   1.697 -1.9545  2.8942 -0.4118
  574SOL     OW 1720   1.353   3.265   1.779  0.2245 -0.1285 -0.3882
  574SOL    HW1 1721   1.259   3.271   1.735  0.2046  0.4280 -2.0515
  574SOL    HW2 1722   1.347   3.285   1.880  1.0001  0.6639  1.4757
  575SOL     OW 1723   0.806   0.618   1.069 -0.5258 -0.3710  0.5617
  575SOL    HW1 1724   0.882   0.651   1.009 -1.5415  1.5812  0.0700
  575SOL    HW2 1725   0.829   0.631   1.169  0.2024  1.8391  0.0777
  576SOL     OW 1726   2.541   0.720   1.721  0.0223 -0.3691 -0.4812
  576SOL    HW1 1727   2.495   0.796   1.772 -2.1926 -4.2363 -0.6553
  576SOL    HW2 1728   2.603   0.761   1.648  0.7774  3.0363 -0.3846
  577SOL     OW 1729   2.352   0.168   3.449  0.1837  0.0903 -0.2926
  577SOL    HW1 1730   2.432   0.203   3.393  0.2910  1.5491  1.4194
  577SOL    HW2 1731   2.268   0.181   3.392  1.9108 -0.9975 -0.7010
  578SOL     OW 1732   1.987   2.220   2.332 -0.3456  0.2510  0.1727
  578SOL    HW1 1733   1.983   2.118   2.330  1.5052 -3.9030  2.7984
  578SOL    HW2 1734   1.963   2.256   2.238 -0.0293 -0.6638 -1.7492
  579SOL     OW 1735   1.024   1.898   1.181 -0.2304  0.2284 -0.2811
  579SOL    HW1 1736   1.075   1.986   1.181 -0.2211 -0.3847  1.0341
  579SOL    HW2 1737   0.954   1.890   1.105 -2.3073 -1.4468 -2.9630
  580SOL     OW 1738   1.383   0.065   3.470  0.7560 -0.3909  0.0282
  580SOL    HW1 1739   1.330   0.016   3.545 -0.2456  1.0011 -1.3875
  580SOL    HW2 1740   1.451   0.136   3.505 -0.4405  1.3744  0.6105
  581SOL     OW 1741   1.363   1.069   2.031  0.0713 -0.0542 -0.0091
  581SOL    HW1 1742   1.404   0.992   2.086 -0.2740  2.0942 -1.4653
  581SOL    HW2 1743   1.390   1.063   1.932  2.9379  1.9006 -0.7551
  582SOL     OW 1744   0.363   0.386   1.125  0.0524  0.3766 -0.1128
  582SOL    HW1 1745   0.346   0.479   1.082  1.1056  0.4527 -1.4920
  582SOL    HW2 1746   0.462   0.360   1.119  0.5919  0.0256  1.1250
  583SOL     OW 1747   0.935   2.307   2.097  0.9200  0.0121 -0.5802
  583SOL    HW1 1748   0.915   2.211   2.130  2.0115  0.3215 -3.2597
  583SOL    HW2 1749   1.017   2.306   2.036 -0.3503  1.9728 -0.1513
  584SOL     OW 1750   2.995   2.893   0.361 -1.0410 -0.4258  0.2845
  584SOL    HW1 1751   3.085   2.938   0.384  1.8448  0.7609 -0.3793
  584SOL    HW2 1752   2.925   2.930   0.428  0.8661  0.2481  0.3240
  585SOL     OW 1753   2.696   0.677   3.352 -0.0654  0.2440 -0.6824
  585SOL    HW1 1754   2.684   0.627   3.441  1.2409  0.3101 -1.3123
  585SOL    HW2 1755   2.653   0.622   3.276 -1.0849 -2.1433 -0.9173
  586SOL     OW 1756   0.572   1.560   0.316  0.3023 -0.6856 -0.4910
  586SOL    HW1 1757   0.632   1.632   0.359 -2.2139 -2.4169  0.2020
  586SOL    HW2 1758   0.475   1.597   0.322  0.6728  1.3561  2.3621
  587SOL     OW 1759   2.064   2.420   1.502 -0.2284 -0.1682  0.6875
  587SOL    HW1 1760   2.080   2.390   1.404  0.0933  4.1624  2.1820
  587SOL    HW2 1761   1.988   2.492   1.510  1.4836 -1.3457 -0.0445
  588SOL     OW 1762   0.620   0.770   1.496  0.1114 -0.0519 -0.0524
  588SOL    HW1 1763   0.709   0.744   1.451 -0.4889 -0.1974 -3.8931
  588SOL    HW2 1764   0.548   0.796   1.428 -0.8972  1.6342  1.8707
  589SOL     OW 1765   2.417   3.415   0.959  0.1730 -0.3375 -0.0816
  589SOL    HW1 1766   2.437   3.439   0.860  0.1133 -0.9669 -1.1306
  589SOL    HW2 1767   2.318   3.385   0.966 -1.7206  2.8252 -4.0874
  590SOL     OW 1768   2.026   1.170   0.472  0.5008 -0.8600  0.3833
  590SOL    HW1 1769   2.096   1.140   0.403  0.7165 -0.4809 -0.0639
  590SOL    HW2 1770   1.930   1.141   0.449  1.0028  1.2753 -0.2450
  591SOL     OW 1771   2.728   2.410   2.370 -0.2888  0.5650 -0.0772
  591SOL    HW1 1772   2.805   2.345   2.346  1.5026  0.9850 -0.1075
  591SOL    HW2 1773   2.771   2.502   2.381  0.6844  0.4766 -1.2442
  592SOL     OW 1774   1.570   2.329   1.376 -0.6147  0.7879  0.2527
  592SOL    HW1 1775   1.611   2.257   1.316  2.5896  2.1322  0.0769
  592SOL    HW2 1776   1.476   2.360   1.348  0.0265 -0.5902 -0.0696
  593SOL     OW 1777   0.659   3.267   0.917 -0.3264  0.2265 -0.1478
  593SOL    HW1 1778   0.761   3.252   0.928 -1.3398  0.8802  0.4784
  593SOL    HW2 1779   0.625   3.321   0.999 -4.3327  1.0889 -2.4860
  594SOL     OW 1780   3.344   1.154   2.757 -0.3139 -0.3880  0.2927
  594SOL    HW1 1781   3.367   1.219   2.681  0.7396 -0.0594 -1.6438
  594SOL    HW2 1782   3.415   1.079   2.769  1.0667 -0.9686 -1.8332
  595SOL     OW 1783   3.517   3.529   0.707 -0.4403 -0.1457  0.4468
  595SOL    HW1 1784   3.594   3.512   0.641 -0.9503 -0.2278  1.3530
  595SOL    HW2 1785   3.537   3.616   0.760 -0.1296 -3.2756  0.1836
  596SOL     OW 1786   0.003   0.658   1.689  0.2296  0.4729  0.2902
  596SOL    HW1 1787   0.023   0.745   1.741 -0.2372 -3.7085  0.0508
  596SOL    HW2 1788  -0.093   0.624   1.711 -0.9449 -1.3426  1.8667
  597SOL     OW 1789   3.087   1.411   0.459 -0.3796  0.0040  0.2834
  597SOL    HW1 1790   3.158   1.335   0.459 -1.4391 -1.4121  0.7029
  597SOL    HW2 1791   2.993   1.373   0.440  0.8357 -0.7855  0.3072
  598SOL     OW 1792   0.704   0.432   2.434 -0.2241  0.1962  0.2152
  598SOL    HW1 1793   0.697   0.523   2.387 -0.3779 -1.0788 -0.6139
  598SOL    HW2 1794   0.618   0.415   2.488 -0.6263  0.1537  1.2591
  599SOL     OW 1795   2.961   2.071   0.215  0.4172 -0.2892  0.4340
  599SOL    HW1 1796   2.941   2.166   0.181 -0.7725 -4.6327  0.0380
  599SOL    HW2 1797   3.028   2.079   0.294 -0.8541 -0.7977  0.8132
  600SOL     OW 1798   0.994   1.003   0.186  0.4667 -0.2239 -0.8376
  600SOL    HW1 1799   1.084   1.046   0.155  1.1047  0.4125  2.3484
  600SOL    HW2 1800   0.915   1.065   0.165  3.0467 -2.6183  1.1652
  601SOL     OW 1801   1.607   1.093   0.124 -0.0844  0.0930 -0.1757
  601SOL    HW1 1802   1.521   1.148   0.115 -2.4420 -2.1519  0.2492
  601SOL    HW2 1803   1.596   1.001   0.081 -4.5947  0.3206 -3.2029
  602SOL     OW 1804   1.177   3.590   1.970  0.1050 -0.0713  0.3468
  602SOL    HW1 1805   1.214   3.685   1.985  0.1293 -1.2552 -0.4504
  602SOL    HW2 1806   1.114   3.586   1.887 -1.9514 -0.5252 -2.2413
  603SOL     OW 1807   1.116   3.284   2.775 -0.5507 -0.0956 -0.3713
  603SOL    HW1 1808   1.198   3.342   2.797  0.0546 -3.1679 -0.1851
  603SOL    HW2 1809   1.121   3.254   2.677 -0.8991  0.7644 -0.8991
  604SOL     OW 1810   0.035   0.079   2.301  0.0687  0.0139 -0.4740
  604SOL    HW1 1811   0.083   0.003   2.353 -0.6878 -0.7334 -0.6893
  604SOL    HW2 1812  -0.052   0.048   2.257  2.1974 -0.3095  2.9957
  605SOL     OW 1813   3.067   3.252   1.908 -0.0499  0.5114  0.6035
  605SOL    HW1 1814   3.020   3.180   1.961  0.2077  1.0055  0.9880
  605SOL    HW2 1815   3.170   3.247   1.920 -0.3671  2.2815  4.0469
  606SOL     OW 1816   0.056   2.210   2.952 -0.0451  0.8083  0.5705
  606SOL    HW1 1817   0.061   2.124   3.007  1.3121 -1.6115  0.1346
  606SOL    HW2 1818   0.117   2.284   2.992  3.6321  0.0848  1.9381
  607SOL     OW 1819   0.956   0.126   0.768  0.4407 -0.1147  0.6427
  607SOL    HW1 1820   0.937   0.207   0.708  0.0834 -0.7162 -1.3791
  607SOL    HW2 1821   0.999   0.148   0.858  0.5822  0.1773  2.4037
  608SOL     OW 1822   1.893   2.086   2.881  0.2758 -0.1089  0.0265
  608SOL    HW1 1823   1.879   1.993   2.838 -0.0697 -4.2461 -1.2123
  608SOL    HW2 1824   1.940   2.150   2.814 -2.3998  0.9020 -2.5834
  609SOL     OW 1825   3.547   0.361   1.478 -0.4716  0.1609 -0.7194
  609SOL    HW1 1826   3.618   0.431   1.446 -0.7235 -1.7919  0.3699
  609SOL    HW2 1827   3.587   0.308   1.555  0.3840  0.0717 -2.0436
  610SOL     OW 1828   1.060   2.827   3.587  0.1438 -0.1055  0.1998
  610SOL    HW1 1829   1.013   2.853   3.501  1.9057 -0.3713  0.6317
  610SOL    HW2 1830   1.015   2.875   3.668  2.9307  0.0309 -0.9120
  611SOL     OW 1831   2.248   1.577   0.583  0.3848  0.5288  0.3705
  611SOL    HW1 1832   2.286   1.640   0.510 -0.9163  0.5166 -2.9223
  611SOL    HW2 1833   2.158   1.547   0.539 -0.4827 -1.1975  0.0059
  612SOL     OW 1834   1.172   3.070   2.954 -0.2305 -0.0067  0.1446
  612SOL    HW1 1835   1.153   3.152   2.893  0.9546 -0.1339 -0.5661
  612SOL    HW2 1836   1.101   2.996   2.943 -0.2895  1.4768  1.5208
  613SOL     OW 1837   1.360   2.353   0.129  0.1737 -0.4551  0.2036
  613SOL    HW1 1838   1.306   2.419   0.187 -3.6973  0.7537 -1.6579
  613SOL    HW2 1839   1.303   2.333   0.045  0.6320  2.1200 -1.5290
  614SOL     OW 1840   3.075   2.779   1.869 -0.2540  0.4832  0.1562
  614SOL    HW1 1841   3.061   2.725   1.784  0.3781  1.0586  0.4917
  614SOL    HW2 1842   3.038   2.733   1.954 -2.1206 -1.2548 -0.1689
  615SOL     OW 1843   2.938   1.494   0.054  0.3474 -0.3829 -0.4036
  615SOL    HW1 1844   2.964   1.524  -0.041  0.1114  0.4302 -0.5661
  615SOL    HW2 1845   2.885   1.407   0.056  0.9177  0.0651 -0.5173
  616SOL     OW 1846   1.921   0.049   0.629 -0.7319 -0.5018 -0.4586
  616SOL    HW1 1847   1.887   0.004   0.716 -1.1515  1.0428 -0.9436
  616SOL    HW2 1848   2.024   0.043   0.625  1.4380 -0.5691  1.0870
  617SOL     OW 1849   0.564   1.743   3.267 -0.0892 -0.4830 -0.7091
  617SOL    HW1 1850   0.546   1.799   3.182  1.7511  3.2448  0.7167
  617SOL    HW2 1851   0.663   1.715   3.273  0.1692 -0.4999 -2.1756
  618SOL     OW 1852   0.569   0.852   2.076  0.5428 -0.5171 -0.2111
  618SOL    HW1 1853   0.466   0.850   2.072 -1.9847 -1.7381 -1.7250
  618SOL    HW2 1854   0.605   0.811   1.989  0.5338 -0.4023 -1.0979
  619SOL     OW 1855   3.314   1.132   2.367  0.2202 -0.0348  0.6797
  619SOL    HW1 1856   3.357   1.201   2.431 -1.4213  0.5753  1.9287
  619SOL    HW2 1857   3.309   1.040   2.409  0.9511 -2.6203  0.1324
  620SOL     OW 1858   2.548   1.098   3.545  0.4879  0.6318  0.1942
  620SOL    HW1 1859   2.597   1.052   3.468 -1.6141  3.5335 -0.7487
  620SOL    HW2 1860   2.458   1.139   3.516 -2.3570  0.7032  0.3525
  621SOL     OW 1861   2.847   3.524   1.437  0.3205  0.5694  0.3678
  621SOL    HW1 1862   2.924   3.484   1.492 -2.3974 -0.8487 -1.9494
  621SOL    HW2 1863   2.762   3.537   1.493 -0.7986 -0.6628  2.2242
  622SOL     OW 1864   1.999   0.650   2.428  0.0096  0.4621  0.3041
  622SOL    HW1 1865   1.999   0.569   2.363  1.0249 -0.2022 -1.0323
  622SOL    HW2 1866   1.916   0.707   2.403 -0.4159  2.8728  2.7052
  623SOL     OW 1867   1.780   1.092   2.819 -0.6798 -0.0172 -0.1446
  623SOL    HW1 1868   1.874   1.112   2.777  0.0791  1.8966 -0.6116
  623SOL    HW2 1869   1.776   1.115   2.921  0.6728  0.3948  2.1289
  624SOL     OW 1870   2.216   0.056   0.626  0.3980 -0.5758 -0.1948
  624SOL    HW1 1871   2.229   0.105   0.537 -0.5176 -0.8309 -1.1806
  624SOL    HW2 1872   2.286  -0.019   0.640 -0.8877 -1.5837 -1.4697
  625SOL     OW 1873   0.801   1.793   0.467  0.0460 -0.0587  0.3020
  625SOL    HW1 1874   0.869   1.717   0.482  1.4874 -1.1725  1.0294
  625SOL    HW2 1875   0.807   1.864   0.541  0.0879  0.5396  1.1773
  626SOL     OW 1876   1.931   1.420   2.697 -0.2230 -0.0489  0.7508
  626SOL    HW1 1877   1.944   1.455   2.602  2.7935  0.3987  1.6025
  626SOL    HW2 1878   1.832   1.442   2.724 -3.4431  1.4559 -2.4669
  627SOL     OW 1879   0.952   0.645   2.153 -0.1082  0.6873  0.0037
  627SOL    HW1 1880   1.031   0.693   2.199 -1.5013  1.7507  2.6089
  627SOL    HW2 1881   0.863   0.661   2.203 -2.1467  0.3639  1.0362
  628SOL     OW 1882   2.460   0.969   2.661 -0.2230 -0.3387  0.9061
  628SOL    HW1 1883   2.381   0.920   2.615 -1.2313 -1.0034  1.2940
  628SOL    HW2 1884   2.540   0.978   2.597 -0.5031  1.1711  1.0294
  629SOL     OW 1885   0.910   1.603   3.545 -0.8564 -0.3385 -0.1546
  629SOL    HW1 1886   0.894   1.634   3.448  0.6427  0.6574  1.7307
  629SOL    HW2 1887   0.828   1.555   3.586 -0.0842  3.5662  1.4947
  630SOL     OW 1888   1.610   0.587   2.640 -0.1076  0.3795 -0.3720
  630SOL    HW1 1889   1.599   0.689   2.634  0.7226 -0.7616  0.6062
  630SOL    HW2 1890   1.699   0.556   2.683  2.6879  1.7579 -0.7300
  631SOL     OW 1891   3.050   0.870   1.033  0.0832  0.2491  0.2416
  631SOL    HW1 1892   3.008   0.792   1.087  0.9716  0.8350 -0.4008
  631SOL    HW2 1893   2.977   0.926   0.983 -0.6638  0.2216 -1.8140
  632SOL     OW 1894   3.199   2.083   0.807  0.2068  0.2201  0.4159
  632SOL    HW1 1895   3.188   2.005   0.742 -3.9325 -0.8322  0.0128
  632SOL    HW2 1896   3.276   2.146   0.776 -0.5559 -0.8622  2.0307
  633SOL     OW 1897   0.830   1.535   0.888  0.3745  0.7007 -0.4296
  633SOL    HW1 1898   0.821   1.478   0.973 -1.0549 -0.2461 -2.8169
  633SOL    HW2 1899   0.806   1.481   0.802 -1.5907  2.0449 -1.0226
  634SOL     OW 1900   1.812   3.562   0.299  0.0279 -0.3180  0.1034
  634SOL    HW1 1901   1.724   3.509   0.294  0.8037  0.3485 -0.7679
  634SOL    HW2 1902   1.835   3.595   0.395  0.1408 -1.3759 -2.2327
  635SOL     OW 1903   2.330   0.318   2.044 -0.2734 -0.2583 -1.3417
  635SOL    HW1 1904   2.367   0.303   1.950  0.4307 -1.7293  1.2346
  635SOL    HW2 1905   2.368   0.405   2.084 -0.9811 -1.9473 -0.7974
  636SOL     OW 1906   1.600   0.778   0.800  0.2292  0.1059  0.7296
  636SOL    HW1 1907   1.543   0.860   0.822  0.8686  1.3254 -0.6929
  636SOL    HW2 1908   1.669   0.770   0.875  2.1342  2.6667 -1.3046
  637SOL     OW 1909   2.319   1.714   3.442  0.2895 -0.1559  0.2724
  637SOL    HW1 1910   2.326   1.767   3.353 -0.0533 -1.7569 -1.0646
  637SOL    HW2 1911   2.221   1.711   3.475  2.5724 -2.7929 -1.1587
  638SOL     OW 1912   1.059   0.005   3.135  0.2573 -0.7667 -1.1086
  638SOL    HW1 1913   1.060  -0.091   3.176  1.5883 -0.5224  0.6858
  638SOL    HW2 1914   0.992   0.008   3.055 -0.2796 -0.7015 -0.8231
  639SOL     OW 1915   1.273   2.404   1.707  0.6151  0.3209  0.5341
  639SOL    HW1 1916   1.199   2.395   1.637  1.1343  1.4277 -1.0188
  639SOL    HW2 1917   1.352   2.342   1.685  0.4317 -1.4348 -0.6667
  640SOL     OW 1918   0.513   0.164   3.347 -0.0026 -0.2070  0.7447
  640SOL    HW1 1919   0.438   0.123   3.404 -1.3706 -0.0309  2.1026
  640SOL    HW2 1920   0.533   0.110   3.261 -2.8544  1.2220  0.3571
  641SOL     OW 1921   0.431   0.787   0.359  0.3722  0.6334 -0.6953
  641SOL    HW1 1922   0.334   0.750   0.362  0.0788 -0.7761  2.3965
  641SOL    HW2 1923   0.432   0.889   0.378  0.2490  0.1831 -0.1739
  642SOL     OW 1924   0.362   1.935   1.320  0.7439 -0.5072 -0.0183
  642SOL    HW1 1925   0.399   2.029   1.336  0.4093  1.2650  2.1488
  642SOL    HW2 1926   0.398   1.894   1.232 -0.1640  1.6882  1.7982
  643SOL     OW 1927   0.967   2.074   3.185 -0.1570 -0.1548 -0.2091
  643SOL    HW1 1928   0.897   2.141   3.222  0.2992  0.5187  0.5548
  643SOL    HW2 1929   1.060   2.099   3.224  1.3240 -0.4245 -1.7860
  644SOL     OW 1930   1.812   2.809   0.495 -0.1602  0.1087 -0.2659
  644SOL    HW1 1931   1.904   2.810   0.449  0.9687 -1.0963 -1.9675
  644SOL    HW2 1932   1.819   2.797   0.596  0.3113 -1.8746 -1.5263
  645SOL     OW 1933   1.205   2.717   1.791 -0.8748 -0.2825  0.6449
  645SOL    HW1 1934   1.226   2.619   1.770  1.0848  3.3595  0.8915
  645SOL    HW2 1935   1.266   2.785   1.744  0.2997  0.0986 -1.7937
  646SOL     OW 1936   0.606   2.978   0.042  0.1653  0.0257  0.2973
  646SOL    HW1 1937   0.699   2.957   0.086 -0.7373  0.5618 -1.1447
  646SOL    HW2 1938   0.593   3.076   0.013 -1.6374 -1.5929  0.3104
  647SOL     OW 1939   0.154   3.512   2.464  0.1229 -0.0970 -0.2603
  647SOL    HW1 1940   0.098   3.509   2.550 -0.1082 -0.9380  0.8660
  647SOL    HW2 1941   0.254   3.494   2.485 -2.8181 -0.8531  0.8190
  648SOL     OW 1942   3.011   1.210   1.295 -0.1947  0.3477 -0.5535
  648SOL    HW1 1943   3.091   1.153   1.266 -2.0598  2.1708  3.5610
  648SOL    HW2 1944   2.938   1.154   1.339 -0.2101 -0.1212  0.4854
  649SOL     OW 1945   2.517   3.112   3.231  0.6930 -0.2221 -0.0101
  649SOL    HW1 1946   2.544   3.082   3.326 -1.0656 -0.3686  0.2581
  649SOL    HW2 1947   2.504   3.215   3.223  0.0078  2.0506  3.3992
  650SOL     OW 1948   3.253   2.565   2.241  0.4803 -0.5003 -0.3006
  650SOL    HW1 1949   3.310   2.480   2.262 -1.2460 -0.6135 -1.2277
  650SOL    HW2 1950   3.296   2.627   2.172  1.0532  2.2558  2.0641
  651SOL     OW 1951   1.245   2.111   3.279 -0.2196 -0.1249 -0.0945
  651SOL    HW1 1952   1.306   2.147   3.203 -1.2145 -1.8335 -0.2537
  651SOL    HW2 1953   1.290   2.028   3.323 -0.7296  1.2262  0.5543
  652SOL     OW 1954   0.568   0.090   2.592 -0.3862  0.2378 -0.3736
  652SOL    HW1 1955   0.533   0.187   2.590  2.7673  0.2459  0.3325
  652SOL    HW2 1956   0.644   0.084   2.662  3.5044  0.6647  0.7546
  653SOL     OW 1957   2.345   2.156   0.948 -0.2670 -0.5674 -0.2269
  653SOL    HW1 1958   2.393   2.066   0.954 -2.0921  2.2422  0.0296
  653SOL    HW2 1959   2.392   2.230   1.001  0.3434 -0.9694  0.0651
  654SOL     OW 1960   2.702   3.284   2.499 -0.0653 -0.1715 -0.6855
  654SOL    HW1 1961   2.646   3.287   2.585 -1.1988 -0.2528 -2.3891
  654SOL    HW2 1962   2.721   3.382   2.474 -2.1146 -1.3865 -0.2244
  655SOL     OW 1963   2.850   2.526   1.118 -0.7233 -0.6117 -0.6154
  655SOL    HW1 1964   2.808   2.614   1.153  0.2637 -0.3583 -0.5620
  655SOL    HW2 1965   2.779   2.467   1.073  0.3830  1.2978  0.8992
  656SOL     OW 1966   3.170   1.793   3.395  0.1694 -0.0365 -0.5296
  656SOL    HW1 1967   3.203   1.866   3.331  0.4423 -0.9534 -0.5856
  656SOL    HW2 1968   3.211   1.806   3.488  0.6988 -1.4286 -0.5123
  657SOL     OW 1969   0.080   1.447   0.762  0.0086 -0.0303  0.1523
  657SOL    HW1 1970   0.005   1.395   0.715 -2.5467  2.1157 -0.0922
  657SOL    HW2 1971   0.055   1.482   0.856 -2.0117  0.8816 -1.6851
  658SOL     OW 1972   1.366   1.960   1.570  0.2053 -0.6492 -0.5612
  658SOL    HW1 1973   1.409   1.918   1.487 -4.3563  0.1103 -2.6816
  658SOL    HW2 1974   1.264   1.959   1.563 -1.9509  0.8518 -0.4312
  659SOL     OW 1975   1.493   0.111   1.686  0.2995  0.1409 -0.4638
  659SOL    HW1 1976   1.508   0.166   1.773 -1.7819 -0.7352  1.7716
  659SOL    HW2 1977   1.442   0.162   1.611  2.2264 -1.2776  1.9039
  660SOL     OW 1978   2.980   0.527   0.826 -0.3389 -0.2043  0.3574
  660SOL    HW1 1979   2.901   0.586   0.858  0.5525  1.3209  0.2179
  660SOL    HW2 1980   3.023   0.564   0.741 -0.8171  0.5950  0.3811
  661SOL     OW 1981   0.621   2.250   0.410 -0.1244 -0.3052 -0.0314
  661SOL    HW1 1982   0.650   2.163   0.364  2.9730 -0.3752 -2.2757
  661SOL    HW2 1983   0.597   2.327   0.346 -1.4744 -3.1604  0.3669
  662SOL     OW 1984   2.665   0.992   2.461 -0.1597  0.3541 -0.7462
  662SOL    HW1 1985   2.708   0.900   2.439  2.1232 -2.5818 -2.0123
  662SOL    HW2 1986   2.619   1.031   2.378 -1.3353 -1.1316  2.5101
  663SOL     OW 1987   2.099   1.663   1.269 -0.4419 -0.1254 -0.0535
  663SOL    HW1 1988   2.133   1.584   1.210  3.3293 -0.3192 -0.5048
  663SOL    HW2 1989   2.179   1.710   1.315  1.1550 -1.7686  1.9157
  664SOL     OW 1990   0.686   3.560   1.413 -0.6520  0.5674  0.2460
  664SOL    HW1 1991   0.737   3.647   1.386  1.0341  1.7516 -1.0349
  664SOL    HW2 1992   0.683   3.555   1.515  0.4951 -1.9499  0.1786
  665SOL     OW 1993   1.650   0.289   3.405  0.2339 -0.5388 -0.2541
  665SOL    HW1 1994   1.723   0.217   3.392 -0.0953  0.1553 -0.8540
  665SOL    HW2 1995   1.649   0.354   3.325 -0.7278  0.6423  1.9759
  666SOL     OW 1996   1.062   0.720   2.601 -0.4694 -0.0398 -0.1056
  666SOL    HW1 1997   1.028   0.624   2.614 -1.4784 -1.6086 -0.3768
  666SOL    HW2 1998   0.981   0.779   2.580  0.4642  0.1372  2.6748
  667SOL     OW 1999   1.618   1.567   1.719 -0.6908 -0.7972  0.3030
  667SOL    HW1 2000   1.546   1.625   1.764  2.3011  0.8970  0.4647
  667SOL    HW2 2001   1.607   1.578   1.617  0.5139  0.3279 -1.7960
  668SOL     OW 2002   0.399   1.302   2.442  0.2502  0.4717  0.6368
  668SOL    HW1 2003   0.480   1.277   2.500  2.1826 -0.2470  0.7640
  668SOL    HW2 2004   0.405   1.393   2.396 -1.1500  0.8457 -1.1052
  669SOL     OW 2005   3.051   2.985   3.378  0.2696  0.4865 -0.5036
  669SOL    HW1 2006   3.017   2.914   3.311  1.5742 -1.0360 -3.1041
  669SOL    HW2 2007   3.054   2.951   3.476 -1.8124  1.5949  1.2721
  670SOL     OW 2008   3.071   1.528   2.012  0.2391 -0.5405  0.2778
  670SOL    HW1 2009   3.167   1.558   1.991  0.2968 -1.0891  0.7311
  670SOL    HW2 2010   3.071   1.451   2.081 -0.0875  0.5214 -0.7945
  671SOL     OW 2011   3.425   2.233   0.700 -0.0181  0.1052 -0.4208
  671SOL    HW1 2012   3.414   2.335   0.695  0.8664  1.2508 -0.9453
  671SOL    HW2 2013   3.443   2.190   0.609  0.7570 -1.5347  1.8933
  672SOL     OW 2014   1.839   1.122   2.247 -0.2332  0.4657 -0.1471
  672SOL    HW1 2015   1.929   1.150   2.291 -2.3385  2.0421 -1.1034
  672SOL    HW2 2016   1.847   1.132   2.143 -0.0637 -0.7966  0.8344
  673SOL     OW 2017   3.427   2.414   1.764  0.1845  0.1726 -0.2953
  673SOL    HW1 2018   3.360   2.493   1.773  1.5267  0.4337  0.8138
  673SOL    HW2 2019   3.396   2.347   1.691  1.0063 -1.3953  1.5494
  674SOL     OW 2020   0.713   2.428   1.831 -0.3601 -0.5952  0.1456
  674SOL    HW1 2021   0.784   2.417   1.907  0.5856  0.7138 -0.3144
  674SOL    HW2 2022   0.630   2.471   1.873  0.7072  2.0535  0.7767
  675SOL     OW 2023   3.392   0.904   1.431 -0.2277 -0.0982 -0.8144
  675SOL    HW1 2024   3.476   0.943   1.476  1.6924 -0.7839  1.0205
  675SOL    HW2 2025   3.395   0.801   1.424  0.9297 -0.2526 -1.1022
  676SOL     OW 2026   3.422   1.043   2.063 -0.1565 -0.5838 -0.0442
  676SOL    HW1 2027   3.398   1.071   2.161  0.3984  1.8271 -1.5447
  676SOL    HW2 2028   3.368   0.959   2.039 -0.6526  2.3557 -0.0359
  677SOL     OW 2029   2.430   1.335   2.909 -0.6182  0.4073  0.5940
  677SOL    HW1 2030   2.336   1.378   2.919 -1.7128 -0.0494  0.2675
  677SOL    HW2 2031   2.491   1.354   2.990  0.1343 -3.7126  0.7786
  678SOL     OW 2032   2.922   1.720   1.348 -0.0484 -0.1071 -0.0123
  678SOL    HW1 2033   2.933   1.647   1.277 -3.4431  0.5413  0.2044
  678SOL    HW2 2034   3.014   1.754   1.381  0.5497  1.3206  0.0052
  679SOL     OW 2035   0.179   3.203   0.021 -0.4595  0.4262 -0.5984
  679SOL    HW1 2036   0.199   3.124  -0.043 -0.8832 -0.5403 -1.7969
  679SOL    HW2 2037   0.183   3.171   0.120 -0.9765 -2.7706  1.6095
  680SOL     OW 2038   0.069   1.926   1.346  0.0116  0.4377 -0.0821
  680SOL    HW1 2039   0.169   1.933   1.326 -0.4675 -0.8248  0.3354
  680SOL    HW2 2040   0.034   2.005   1.402  1.3632  2.7908  0.1060
  681SOL     OW 2041   1.080   0.147   1.032  0.7432 -0.2902  0.0033
  681SOL    HW1 2042   1.027   0.162   1.119  1.5160  0.1941 -1.0862
  681SOL    HW2 2043   1.175   0.184   1.050 -0.7706 -1.3773  1.6537
  682SOL     OW 2044   2.413   2.825   1.910 -1.0753 -0.1845  0.3631
  682SOL    HW1 2045   2.496   2.777   1.948 -1.6624 -1.2710 -1.0042
  682SOL    HW2 2046   2.390   2.778   1.821 -1.5226 -0.1389  1.5066
  683SOL     OW 2047   3.129   2.110   1.983  0.2183  0.5949  0.4388
  683SOL    HW1 2048   3.096   2.188   1.926  1.4527  2.1829 -1.0589
  683SOL    HW2 2049   3.216   2.075   1.943 -0.3316  0.0715  2.6280
  684SOL     OW 2050   3.595   1.711   2.122 -0.4988  0.1047  0.0294
  684SOL    HW1 2051   3.591   1.721   2.224  1.3593  0.7507 -0.7008
  684SOL    HW2 2052   3.694   1.701   2.093  3.0240  0.1510 -0.8794
  685SOL     OW 2053   1.637   1.643   0.294 -0.1278 -0.3737 -0.8295
  685SOL    HW1 2054   1.667   1.712   0.364  0.8102  0.1315 -1.1696
  685SOL    HW2 2055   1.720   1.597   0.255 -2.7939 -0.3323 -0.7800
  686SOL     OW 2056   3.367   0.709   2.264 -0.5429 -0.4290 -0.0462
  686SOL    HW1 2057   3.468   0.689   2.252 -3.5343  1.1553  0.7247
  686SOL    HW2 2058   3.315   0.731   2.178  0.4874  0.7132  1.0657
  687SOL     OW 2059   1.849   0.065   3.390 -0.1602 -0.5526  0.3017
  687SOL    HW1 2060   1.782   0.005   3.338 -1.6370  1.5024  0.1779
  687SOL    HW2 2061   1.880   0.023   3.479  1.9718 -0.0064 -0.6592
  688SOL     OW 2062   1.452   2.153   3.046 -0.8191  0.8068 -0.1478
  688SOL    HW1 2063   1.448   2.061   2.998 -1.3995 -1.6589 -0.5078
  688SOL    HW2 2064   1.548   2.177   3.074  0.4283  1.9323  0.3927
  689SOL     OW 2065   2.604   1.914   1.717  0.0569  0.0755  0.5846
  689SOL    HW1 2066   2.512   1.866   1.729  1.4000  1.9701 -2.6952
  689SOL    HW2 2067   2.670   1.851   1.670 -1.5419 -0.0485  1.8195
  690SOL     OW 2068   2.742   2.520   1.484 -0.1460  0.2644  0.0471
  690SOL    HW1 2069   2.683   2.498   1.565  0.7572 -1.0658 -1.6377
  690SOL    HW2 2070   2.741   2.440   1.419  1.1568 -1.3865 -0.2429
  691SOL     OW 2071   0.243   1.969   0.787  0.0597  0.2761  0.3730
  691SOL    HW1 2072   0.291   2.041   0.732 -1.4695 -1.7623 -0.8961
  691SOL    HW2 2073   0.154   2.008   0.823 -2.3600 -0.8148 -0.5036
  692SOL     OW 2074   3.227   3.544   3.449 -0.1010  0.0281  0.1366
  692SOL    HW1 2075   3.330   3.548   3.461  0.3791  0.3771 -0.3088
  692SOL    HW2 2076   3.206   3.593   3.362 -0.3676  0.9740 -0.0884
  693SOL     OW 2077   0.363   1.582   2.343  0.4900 -0.0633  0.2334
  693SOL    HW1 2078   0.330   1.611   2.250  0.9603  0.7432 -2.0287
  693SOL    HW2 2079   0.300   1.617   2.417  2.2569  3.2685 -0.8117
  694SOL     OW 2080   2.922   0.417   2.366  0.6492 -0.2370  0.3411
  694SOL    HW1 2081   3.024   0.421   2.374 -1.3584 -0.9715  2.3333
  694SOL    HW2 2082   2.890   0.387   2.273 -2.3645 -3.9613  2.5873
  695SOL     OW 2083   1.718   0.880   2.365 -0.1251 -0.3387  0.2795
  695SOL    HW1 2084   1.684   0.897   2.460  0.3583  2.5283  2.4387
  695SOL    HW2 2085   1.767   0.961   2.328  0.9765 -0.8995  2.4690
  696SOL     OW 2086   2.592   3.385   1.997  0.0298  0.4373  0.2490
  696SOL    HW1 2087   2.556   3.431   2.082  1.9761 -3.1149  4.3715
  696SOL    HW2 2088   2.526   3.403   1.921 -0.6330 -1.5965  4.4551
  697SOL     OW 2089   1.249   0.893   2.377  0.3204 -0.1918  0.7610
  697SOL    HW1 2090   1.216   0.822   2.444  1.3151 -2.4201 -3.2513
  697SOL    HW2 2091   1.327   0.857   2.320 -1.6280 -1.0431 -0.4005
  698SOL     OW 2092   2.628   1.954   3.212  0.0097  0.1177  0.2022
  698SOL    HW1 2093   2.708   1.914   3.160 -0.7887  1.5316  1.7334
  698SOL    HW2 2094   2.625   1.925   3.311  1.7579  1.6267  0.7578
  699SOL     OW 2095   2.830   1.274   0.372 -0.2103  0.2813  0.2702
  699SOL    HW1 2096   2.748   1.232   0.416  0.4806  1.4132 -2.1888
  699SOL    HW2 2097   2.822   1.265   0.270  0.3835  3.4031 -0.5484
  700SOL     OW 2098   1.473   3.606   1.131  0.6140  0.0911 -0.6027
  700SOL    HW1 2099   1.518   3.563   1.049 -1.1559  2.6051 -0.3105
  700SOL    HW2 2100   1.517   3.573   1.220 -0.1265  2.4020 -0.4576
  701SOL     OW 2101   3.452   0.575   0.881 -0.5299 -0.0373 -0.5770
  701SOL    HW1 2102   3.393   0.660   0.876 -1.2987  2.3550 -0.7411
  701SOL    HW2 2103   3.537   0.598   0.935 -3.1194  4.9156 -0.4782
  702SOL     OW 2104   1.842   3.049   1.465 -0.1256  0.3775  0.7779
  702SOL    HW1 2105   1.845   2.951   1.501 -2.3473  1.4463 -0.8502
  702SOL    HW2 2106   1.867   3.121   1.533  2.3487 -1.2916 -2.7551
  703SOL     OW 2107   0.084   0.600   1.417 -0.0412  0.1063  0.2332
  703SOL    HW1 2108   0.054   0.630   1.510 -4.4480 -2.1839 -2.6642
  703SOL    HW2 2109   0.188   0.609   1.412 -0.3859 -2.5567  0.9023
  704SOL     OW 2110   1.256   3.345   2.085 -0.2248 -0.0788  0.0642
  704SOL    HW1 2111   1.229   3.433   2.040 -1.5831 -1.6294 -1.0744
  704SOL    HW2 2112   1.174   3.295   2.122 -0.9681  0.8188 -1.9432
  705SOL     OW 2113   0.068   2.309   3.589 -0.3611  0.5563 -0.5345
  705SOL    HW1 2114   0.119   2.252   3.657 -0.2569 -3.3738  0.7132
  705SOL    HW2 2115  -0.025   2.336   3.623 -0.5884 -4.4192  0.3637
  706SOL     OW 2116   0.073   0.677   0.379  0.1856 -0.7729  0.2737
  706SOL    HW1 2117   0.067   0.642   0.281  1.7116 -2.4402 -1.1095
  706SOL    HW2 2118   0.023   0.612   0.441 -1.6296 -2.9729  0.6172
  707SOL     OW 2119   2.315   3.034   2.285  0.7937  0.4522 -0.5195
  707SOL    HW1 2120   2.349   2.943   2.322 -0.7621  0.2683 -0.0290
  707SOL    HW2 2121   2.366   3.117   2.321  0.1310 -2.0486 -1.5478
  708SOL     OW 2122   0.696   3.543   1.736  0.1944 -0.5290  0.3535
  708SOL    HW1 2123   0.693   3.452   1.784  1.6282 -1.1634  2.6600
  708SOL    HW2 2124   0.643   3.612   1.793 -0.3362 -1.3068  3.0390
  709SOL     OW 2125   0.277   0.864   2.071 -0.4109  0.9057 -0.8561
  709SOL    HW1 2126   0.207   0.885   1.999 -0.6812  2.5915 -0.4844
  709SOL    HW2 2127   0.269   0.930   2.150  1.0634 -0.7565  0.5836
  710SOL     OW 2128   0.292   0.693   0.909 -0.5901  0.0078  0.2301
  710SOL    HW1 2129   0.215   0.686   0.978  0.2293  0.7649 -1.4069
  710SOL    HW2 2130   0.276   0.775   0.850 -0.7551  1.2894  0.9145
  711SOL     OW 2131   2.798   2.749   2.387 -0.3530 -0.2312 -0.1502
  711SOL    HW1 2132   2.816   2.738   2.488  0.0292  1.2660 -1.7272
  711SOL    HW2 2133   2.760   2.842   2.372  1.3499  1.7557  0.0698
  712SOL     OW 2134   0.213   3.162   2.815 -0.2300  0.1373 -0.2041
  712SOL    HW1 2135   0.189   3.252   2.860  0.9652  0.8562 -1.2789
  712SOL    HW2 2136   0.145   3.132   2.746 -1.4235  0.4194  0.4535
  713SOL     OW 2137   2.755   0.232   0.771  0.1085 -0.2966 -0.0184
  713SOL    HW1 2138   2.820   0.303   0.809 -0.1258 -0.5031 -0.2354
  713SOL    HW2 2139   2.737   0.242   0.670  2.0338  2.0760  2.5428
  714SOL     OW 2140   2.016   1.648   3.183  0.3476 -0.6123 -0.8857
  714SOL    HW1 2141   2.014   1.750   3.188 -0.1859 -0.1058 -2.1148
  714SOL    HW2 2142   2.074   1.619   3.103  1.0921  2.2161  1.8291
  715SOL     OW 2143   0.066   0.705   1.094 -0.4088 -0.1836  0.1424
  715SOL    HW1 2144   0.056   0.666   1.190 -1.1985  3.2239  0.8859
  715SOL    HW2 2145   0.051   0.807   1.095  0.6393 -0.9914  1.8917
  716SOL     OW 2146   0.926   0.827   1.882  0.3820 -0.6457 -0.3895
  716SOL    HW1 2147   0.839   0.793   1.839 -1.5226 -0.0882 -0.5732
  716SOL    HW2 2148   0.946   0.775   1.968  0.8627  0.1596 -0.1711
  717SOL     OW 2149   1.625   0.944   2.628 -0.0007 -0.2787  0.0707
  717SOL    HW1 2150   1.681   0.995   2.697 -0.9090  2.5801 -1.7189
  717SOL    HW2 2151   1.538   0.995   2.609 -0.4474 -1.5849 -1.8266
  718SOL     OW 2152   1.455   0.029   0.616 -0.2092  0.4746 -0.2837
  718SOL    HW1 2153   1.488   0.120   0.652 -0.2418 -0.7898  0.3716
  718SOL    HW2 2154   1.454   0.042   0.514 -0.4653  1.5131  0.6470
  719SOL     OW 2155   3.511   3.238   3.220 -0.3309  0.3708  0.0024
  719SOL    HW1 2156   3.418   3.198   3.212 -0.1561 -0.1938  2.0513
  719SOL    HW2 2157   3.581   3.168   3.248 -5.2849  2.1389  0.5874
  720SOL     OW 2158   1.730   0.451   2.168  0.0705  0.2731 -0.6107
  720SOL    HW1 2159   1.672   0.437   2.252  1.3600  0.4418 -0.1148
  720SOL    HW2 2160   1.828   0.432   2.193  0.1830  0.3576  0.0896
  721SOL     OW 2161   0.127   3.301   1.277 -0.3280  0.2055  0.5219
  721SOL    HW1 2162   0.100   3.398   1.253 -1.0587  3.5024 -1.3977
  721SOL    HW2 2163   0.046   3.238   1.260 -2.1811 -0.8265 -0.8272
  722SOL     OW 2164   1.023   1.214   3.263  0.0134 -0.3288 -0.3083
  722SOL    HW1 2165   0.982   1.281   3.197  2.2098 -1.4229 -0.6318
  722SOL    HW2 2166   1.050   1.262   3.350 -1.2024  2.1645  2.1969
  723SOL     OW 2167   2.399   1.449   1.537  0.5347  0.9840  0.1429
  723SOL    HW1 2168   2.459   1.482   1.459  0.3038 -0.4591 -1.0856
  723SOL    HW2 2169   2.370   1.524   1.602  1.8536 -1.6107 -0.1305
  724SOL     OW 2170   1.068   2.208   0.406 -0.7374  0.0304 -0.8322
  724SOL    HW1 2171   1.126   2.132   0.448  0.6844 -1.4992  1.4604
  724SOL    HW2 2172   1.051   2.192   0.305 -3.9153  2.3755  1.7679
  725SOL     OW 2173   0.021   0.908   1.832 -0.8094 -0.0628 -0.1923
  725SOL    HW1 2174   0.010   0.955   1.741 -1.9514 -0.9941  0.5739
  725SOL    HW2 2175  -0.046   0.949   1.900  2.8987  0.5487 -0.4700
  726SOL     OW 2176   2.811   1.219   0.072 -0.3652  0.2549  0.5430
  726SOL    HW1 2177   2.715   1.208   0.038 -3.4134 -1.2890  0.8460
  726SOL    HW2 2178   2.857   1.128   0.073 -0.0932 -2.0273 -2.1725
  727SOL     OW 2179   2.585   1.006   2.968  0.2928  0.0341  0.3050
  727SOL    HW1 2180   2.588   1.109   2.986 -0.5126  0.8036  1.2611
  727SOL    HW2 2181   2.549   0.980   2.874 -1.6031 -0.8295  1.2617
  728SOL     OW 2182   2.117   2.245   1.726 -0.0117  0.1674  0.1377
  728SOL    HW1 2183   2.219   2.226   1.720 -1.4930 -2.3114 -0.7934
  728SOL    HW2 2184   2.089   2.301   1.644 -0.0960 -3.4231  3.0179
  729SOL     OW 2185   2.158   1.262   2.383 -0.1147 -0.2689 -0.0600
  729SOL    HW1 2186   2.096   1.344   2.401  0.1501 -2.3711 -0.2484
  729SOL    HW2 2187   2.255   1.292   2.382  1.6847 -0.9620 -0.2433
  730SOL     OW 2188   1.635   0.786   1.312  0.2974 -0.3043  0.4782
  730SOL    HW1 2189   1.616   0.686   1.328  1.2436 -1.3422 -0.9185
  730SOL    HW2 2190   1.699   0.793   1.232  0.4966 -0.0221 -0.7331
  731SOL     OW 2191   0.612   0.895   3.583  0.7715  0.4618 -0.2278
  731SOL    HW1 2192   0.641   0.857   3.493 -0.3605  0.8947  0.1721
  731SOL    HW2 2193   0.617   0.828   3.660 -0.0164  1.5476 -3.1742
  732SOL     OW 2194   0.445   1.134   0.438  0.1947  0.1015 -0.3053
  732SOL    HW1 2195   0.530   1.192   0.425 -1.8045  1.1220 -1.0220
  732SOL    HW2 2196   0.402   1.152   0.530  0.8625 -0.7220 -0.4049
  733SOL     OW 2197   1.573   1.919   2.603  0.5420 -0.5943  0.0536
  733SOL    HW1 2198   1.503   1.993   2.587  0.6502  2.1261  0.8630
  733SOL    HW2 2199   1.606   1.874   2.514 -1.4170  0.9760  0.4079
  734SOL     OW 2200   0.484   2.762   3.521 -0.3311 -0.2014  0.1701
  734SOL    HW1 2201   0.532   2.837   3.573 -0.0739 -0.8856 -0.2059
  734SOL    HW2 2202   0.435   2.691   3.577  1.6532 -1.0331  0.7854
  735SOL     OW 2203   3.216   0.148   1.189 -0.2508  0.2203  0.4674
  735SOL    HW1 2204   3.248   0.140   1.286  1.6562  0.4122 -1.1444
  735SOL    HW2 2205   3.226   0.242   1.148 -0.8508 -0.8341  1.2998
  736SOL     OW 2206   2.314   1.738   2.796 -0.4342  0.2580 -0.5848
  736SOL    HW1 2207   2.408   1.710   2.762  0.5631 -2.2929  0.5540
  736SOL    HW2 2208   2.325   1.804   2.874 -0.3581  0.3928  0.8064
  737SOL     OW 2209   0.063   0.939   0.482 -0.2907 -0.3349 -0.5956
  737SOL    HW1 2210   0.052   1.006   0.406 -0.2127 -0.6555  1.9593
  737SOL    HW2 2211   0.068   0.843   0.444  1.8545  1.4884  0.2150
  738SOL     OW 2212   1.060   2.374   1.499  0.0668  1.0328 -0.4125
  738SOL    HW1 2213   1.023   2.289   1.454  1.5068 -4.0396 -0.3185
  738SOL    HW2 2214   0.983   2.440   1.518  0.3646  1.2524  1.8702
  739SOL     OW 2215   2.138   3.028   2.778 -0.1588  0.0827  0.0978
  739SOL    HW1 2216   2.166   3.048   2.875  2.6399 -1.2624 -1.1628
  739SOL    HW2 2217   2.114   3.114   2.728 -0.9901 -0.6015  1.7841
  740SOL     OW 2218   2.715   2.748   1.255 -1.0150 -0.5452  0.1763
  740SOL    HW1 2219   2.719   2.699   1.346  1.3865  1.3161 -1.7933
  740SOL    HW2 2220   2.754   2.843   1.266  0.9716 -2.1329  2.6089
  741SOL     OW 2221   2.736   0.740   0.131  0.4396 -0.1867  0.5610
  741SOL    HW1 2222   2.732   0.663   0.062  2.2053  0.1022 -0.6625
  741SOL    HW2 2223   2.762   0.698   0.223  0.3359 -0.1117  2.2703
  742SOL     OW 2224   1.311   2.824   0.117 -0.6592  0.1675 -0.0292
  742SOL    HW1 2225   1.234   2.818   0.049 -1.0916 -1.5643  0.0256
  742SOL    HW2 2226   1.341   2.922   0.129 -3.4770 -1.9375  0.7151
  743SOL     OW 2227   3.047   1.638   2.447 -0.3535 -0.0799  0.3543
  743SOL    HW1 2228   2.996   1.655   2.358  0.4617  2.8636 -0.9865
  743SOL    HW2 2229   3.030   1.545   2.484 -0.9678 -0.2036 -0.4725
  744SOL     OW 2230   3.475   0.194   0.470  1.0926 -0.3310  0.7326
  744SOL    HW1 2231   3.397   0.213   0.532  0.0453  0.1914 -1.0168
  744SOL    HW2 2232   3.449   0.125   0.398 -1.0659 -0.2223  1.4267
  745SOL     OW 2233   3.055   2.104   1.534 -0.1641  0.4076 -0.4675
  745SOL    HW1 2234   3.090   2.006   1.521  0.1845 -2.0830  0.1422
  745SOL    HW2 2235   2.980   2.116   1.463 -0.6237 -2.0401  0.3276
  746SOL     OW 2236   1.277   1.940   0.513  0.3878 -0.4288 -0.0899
  746SOL    HW1 2237   1.252   1.924   0.612 -1.0825  0.6496 -1.6185
  746SOL    HW2 2238   1.256   1.861   0.451  1.1139 -1.3672  1.1557
  747SOL     OW 2239   1.378   1.824   1.831  0.4896 -0.1541 -0.1326
  747SOL    HW1 2240   1.398   1.874   1.742 -0.4363  0.5988 -0.8256
  747SOL    HW2 2241   1.303   1.754   1.819  2.4242  1.1285  0.2702
  748SOL     OW 2242   0.322   3.399   3.469  0.2908 -0.2644 -0.2635
  748SOL    HW1 2243   0.264   3.339   3.531  0.9485 -0.9874 -2.6827
  748SOL    HW2 2244   0.316   3.499   3.493  1.3618 -1.8417  3.2161
  749SOL     OW 2245   0.298   1.243   3.334  0.1843 -0.6021 -0.4469
  749SOL    HW1 2246   0.313   1.170   3.407  2.9195 -1.1820 -0.9394
  749SOL    HW2 2247   0.335   1.215   3.242  0.0943  2.6583 -1.6533
  750SOL     OW 2248   1.894   1.165   1.934 -0.0562 -0.0432  0.3776
  750SOL    HW1 2249   1.817   1.192   1.873 -2.5586 -0.2266 -0.3817
  750SOL    HW2 2250   1.956   1.246   1.940 -2.4510 -1.1276  0.9264
  751SOL     OW 2251   3.404   1.054   0.727 -0.4439  0.2282 -0.1307
  751SOL    HW1 2252   3.474   1.002   0.670  0.1031 -3.5890 -0.2014
  751SOL    HW2 2253   3.417   1.155   0.714 -0.8715 -0.9781  1.1516
  752SOL     OW 2254   3.336   3.290   1.074  1.0003  0.0788 -0.1007
  752SOL    HW1 2255   3.353   3.392   1.082 -0.3377 -0.4477 -1.2919
  752SOL    HW2 2256   3.389   3.236   1.144  1.4969 -0.6980  1.2624
  753SOL     OW 2257   0.816   2.993   1.490 -0.0596 -0.2326  0.1890
  753SOL    HW1 2258   0.850   2.926   1.562  0.8627 -0.7955  1.1808
  753SOL    HW2 2259   0.835   2.961   1.392  1.0891 -1.2499  0.9726
  754SOL     OW 2260   3.472   3.172   2.254 -0.0333  0.1004 -0.0609
  754SOL    HW1 2261   3.438   3.252   2.308 -1.4885  1.1553 -0.9938
  754SOL    HW2 2262   3.436   3.085   2.296 -0.3564  0.0389  0.3335
  755SOL     OW 2263   2.915   0.958   0.025  0.1559 -0.0874  0.2689
  755SOL    HW1 2264   2.999   0.915  -0.014 -2.2661  2.5650 -0.6475
  755SOL    HW2 2265   2.855   0.883   0.063  2.8242 -0.5544 -0.1536
  756SOL     OW 2266   2.143   2.517   0.266  0.2779 -0.2722  0.1024
  756SOL    HW1 2267   2.143   2.535   0.164 -1.0102 -0.0204  2.2276
  756SOL    HW2 2268   2.220   2.457   0.300  0.9995  1.1023  1.2069
  757SOL     OW 2269   3.099   0.642   0.597 -0.9459 -0.8600 -0.3614
  757SOL    HW1 2270   3.071   0.738   0.567 -2.0863 -0.6620 -0.2563
  757SOL    HW2 2271   3.202   0.642   0.605 -0.2305 -1.7937 -0.7107
  758SOL     OW 2272   2.529   1.108   2.248  0.1838 -0.0232  0.2559
  758SOL    HW1 2273   2.443   1.057   2.218  2.1903  1.9537 -2.3377
  758SOL    HW2 2274   2.503   1.200   2.285  0.7958 -2.9255 -0.4160
  759SOL     OW 2275   3.137   0.581   1.562  0.3886 -0.1876  0.1751
  759SOL    HW1 2276   3.061   0.639   1.525 -5.6106  1.4186 -2.9459
  759SOL    HW2 2277   3.213   0.566   1.495 -0.3598 -0.5854  0.8828
  760SOL     OW 2278   0.664   1.716   1.688 -0.0719  0.1384  0.4293
  760SOL    HW1 2279   0.573   1.759   1.664 -0.4009 -1.9582 -3.8878
  760SOL    HW2 2280   0.656   1.616   1.712  0.9557 -1.7284  0.2270
  761SOL     OW 2281   0.938   0.738   0.110 -0.9302  0.3638  0.3811
  761SOL    HW1 2282   0.839   0.717   0.130 -0.8475 -0.9720  2.5428
  761SOL    HW2 2283   0.962   0.834   0.140 -0.2394 -3.3688 -0.7851
  762SOL     OW 2284   0.836   2.101   1.365  0.1081  0.0580 -0.3359
  762SOL    HW1 2285   0.885   2.016   1.336 -0.4408  1.2142 -2.3421
  762SOL    HW2 2286   0.809   2.098   1.465 -2.6391  1.4918 -1.8641
  763SOL     OW 2287   1.489   0.826   2.191 -0.3956  0.0291  0.0944
  763SOL    HW1 2288   1.517   0.757   2.119  0.7505 -0.1847  1.9318
  763SOL    HW2 2289   1.563   0.840   2.262  0.0270 -0.4324  0.9316
  764SOL     OW 2290   3.518   3.531   3.452  0.3438 -0.5943 -0.1766
  764SOL    HW1 2291   3.565   3.524   3.543 -0.1027  0.7172  1.3600
  764SOL    HW2 2292   3.538   3.445   3.397  0.6266  3.5240  2.6610
  765SOL     OW 2293   0.838   0.047   2.187 -0.2434  0.0981 -0.0989
  765SOL    HW1 2294   0.755   0.095   2.223 -1.6395 -1.4973  3.6248
  765SOL    HW2 2295   0.883   0.102   2.111 -1.5462 -0.5549 -1.0838
  766SOL     OW 2296   3.215   2.226   2.658  0.1581 -0.4181 -0.0655
  766SOL    HW1 2297   3.128   2.184   2.696  0.8980 -2.4265 -0.5744
  766SOL    HW2 2298   3.303   2.203   2.707  1.5870 -0.9102 -1.3025
  767SOL     OW 2299   1.603   1.462   2.787  0.0101  0.2655 -0.1962
  767SOL    HW1 2300   1.599   1.359   2.804 -0.3872 -2.0970 -1.5141
  767SOL    HW2 2301   1.516   1.497   2.743  1.0113  0.3237  0.3315
  768SOL     OW 2302   1.745   2.068   0.164  0.7114  1.0153  0.4172
  768SOL    HW1 2303   1.643   2.064   0.182 -1.3766 -0.5164 -0.6047
  768SOL    HW2 2304   1.794   2.069   0.255 -0.4361 -0.0228 -0.0191
  769SOL     OW 2305   0.470   1.818   1.054  0.0022 -0.5284  0.4882
  769SOL    HW1 2306   0.411   1.854   0.978 -1.8712 -0.5610  2.2384
  769SOL    HW2 2307   0.570   1.826   1.026  1.1362  0.1950  1.3435
  770SOL     OW 2308   1.947   0.739   2.937 -0.0161 -0.4637  0.1632
  770SOL    HW1 2309   2.008   0.823   2.927 -2.1092  2.5858 -0.9425
  770SOL    HW2 2310   1.852   0.765   2.969 -1.7356 -0.4685  0.9156
  771SOL     OW 2311   2.968   0.106   2.818  0.1922 -0.1984  0.2891
  771SOL    HW1 2312   2.919   0.149   2.737 -0.4494  0.7090  2.4665
  771SOL    HW2 2313   2.904   0.084   2.897 -1.8595 -1.8954  0.1635
  772SOL     OW 2314   2.925   1.973   2.506  0.4927  0.5080 -0.0158
  772SOL    HW1 2315   2.824   1.957   2.501  0.4677 -0.8309  1.5131
  772SOL    HW2 2316   2.980   1.888   2.483  0.4839 -0.4092  2.5392
  773SOL     OW 2317   1.156   1.664   1.767 -0.4956 -0.2634  0.4459
  773SOL    HW1 2318   1.167   1.597   1.690 -0.7161 -0.5813  3.0099
  773SOL    HW2 2319   1.072   1.721   1.754 -5.0972  0.6636 -0.1082
  774SOL     OW 2320   1.330   0.744   3.357 -0.1517 -0.7898 -0.3751
  774SOL    HW1 2321   1.318   0.650   3.315  0.7564 -0.6235 -1.9509
  774SOL    HW2 2322   1.246   0.801   3.343  3.1297  1.6618  1.4909
  775SOL     OW 2323   1.672   2.575   0.403 -0.1157 -0.0239 -0.2166
  775SOL    HW1 2324   1.706   2.667   0.432  2.4774 -1.9170 -0.7286
  775SOL    HW2 2325   1.658   2.582   0.301  0.7839 -2.9214  0.3057
  776SOL     OW 2326   3.525   1.290   1.927  0.4939  0.0145 -0.1774
  776SOL    HW1 2327   3.625   1.299   1.949  0.2548  0.3427  0.4992
  776SOL    HW2 2328   3.482   1.208   1.970  2.1610 -0.1317  3.1601
  777SOL     OW 2329   2.875   2.718   2.657 -0.1251 -0.4186 -0.3061
  777SOL    HW1 2330   2.916   2.809   2.682 -2.6655  0.9944 -1.6983
  777SOL    HW2 2331   2.947   2.644   2.653  1.6253 -0.7424  2.7862
  778SOL     OW 2332   1.976   1.516   2.439  0.3789 -0.3422  0.2778
  778SOL    HW1 2333   1.914   1.527   2.356 -0.8721 -1.6046 -0.6152
  778SOL    HW2 2334   2.012   1.605   2.475  1.0607 -1.2126  0.0349
  779SOL     OW 2335   3.448   1.330   0.636  0.0368 -0.2232 -0.2536
  779SOL    HW1 2336   3.407   1.422   0.655  0.4142 -4.0466  0.4341
  779SOL    HW2 2337   3.426   1.299   0.539  2.9730 -0.7477 -1.1800
  780SOL     OW 2338   2.454   3.465   3.255 -0.4340  0.6725 -0.4238
  780SOL    HW1 2339   2.373   3.504   3.205  3.0666  0.6127  1.3603
  780SOL    HW2 2340   2.447   3.478   3.356 -1.0426 -2.5576  2.8769
  781SOL     OW 2341   3.186   1.838   1.439  0.3023 -0.0593  0.1322
  781SOL    HW1 2342   3.253   1.863   1.365  1.6646  0.1630 -1.6750
  781SOL    HW2 2343   3.239   1.803   1.521  2.1379 -0.4129  0.7116
  782SOL     OW 2344   3.427   2.675   3.346  0.1143  0.8214  0.0119
  782SOL    HW1 2345   3.383   2.703   3.435  2.1781 -0.2841  0.3728
  782SOL    HW2 2346   3.358   2.665   3.270  1.0142 -0.0715  3.5121
  783SOL     OW 2347   0.807   1.821   0.935 -0.5539 -0.0511 -0.0568
  783SOL    HW1 2348   0.800   1.720   0.914 -0.0186  0.8604 -1.4901
  783SOL    HW2 2349   0.811   1.879   0.851 -0.0169 -1.9577  2.5273
  784SOL     OW 2350   2.688   1.608   0.528 -0.5562 -0.2606 -0.4073
  784SOL    HW1 2351   2.713   1.519   0.481 -1.0117 -1.1384 -1.6521
  784SOL    HW2 2352   2.642   1.670   0.458  1.5762 -0.7874 -0.4764
  785SOL     OW 2353   2.299   3.234   0.506  0.3451  0.2725 -0.3975
  785SOL    HW1 2354   2.243   3.274   0.430  1.1876  0.8690  1.7642
  785SOL    HW2 2355   2.237   3.185   0.573  2.9028 -1.7510  1.6243
  786SOL     OW 2356   0.810   2.344   3.007  0.2809 -0.6013 -0.2714
  786SOL    HW1 2357   0.767   2.267   2.953  0.6736  0.5016  0.5322
  786SOL    HW2 2358   0.782   2.334   3.106 -1.8964 -1.0497  0.8187
  787SOL     OW 2359   1.568   0.465   1.356  0.1549  0.5303 -0.3554
  787SOL    HW1 2360   1.660   0.420   1.358  1.2380  1.1100  1.7647
  787SOL    HW2 2361   1.503   0.409   1.412 -1.2703 -0.0611  0.3237
  788SOL     OW 2362   0.769   1.170   0.096  0.1021  0.1018  1.2184
  788SOL    HW1 2363   0.720   1.093   0.046 -2.2080  0.9865  0.9111
  788SOL    HW2 2364   0.745   1.262   0.056  0.8677  3.0933  1.0981
  789SOL     OW 2365   3.329   2.232   1.522  0.2011  0.1338 -0.2243
  789SOL    HW1 2366   3.243   2.185   1.554 -3.1265  2.7695  1.5004
  789SOL    HW2 2367   3.318   2.274   1.428  1.9200 -1.3186 -1.5672
  790SOL     OW 2368   1.676   0.156   2.582 -0.2409 -0.0226 -0.3268
  790SOL    HW1 2369   1.601   0.119   2.644 -1.7984  0.9452  0.8532
  790SOL    HW2 2370   1.637   0.236   2.530 -0.3406  1.1500  0.6041
  791SOL     OW 2371   1.174   0.630   0.239 -0.3731  0.0991 -0.0333
  791SOL    HW1 2372   1.211   0.545   0.192 -0.5466  0.2608 -0.7271
  791SOL    HW2 2373   1.090   0.665   0.192 -2.1641  3.8827 -0.5346
  792SOL     OW 2374   1.526   0.349   1.943 -0.3867  0.0274 -0.1944
  792SOL    HW1 2375   1.532   0.449   1.915  0.9251  1.8619 -0.9300
  792SOL    HW2 2376   1.591   0.330   2.023 -2.3736  2.5123  1.3025
  793SOL     OW 2377   1.151   3.480   0.973  0.1419  0.0366 -0.1325
  793SOL    HW1 2378   1.109   3.575   0.977  0.0874  0.5565 -0.3576
  793SOL    HW2 2379   1.216   3.466   1.052 -1.3319 -0.0903 -0.8681
  794SOL     OW 2380   0.768   1.526   2.179  0.3982  0.1781 -0.0397
  794SOL    HW1 2381   0.721   1.435   2.169  1.6770  1.1248  1.3059
  794SOL    HW2 2382   0.827   1.531   2.265  1.6667 -1.8326  0.9977
  795SOL     OW 2383   0.166   1.656   2.586  0.0719 -0.2929  0.0734
  795SOL    HW1 2384   0.079   1.687   2.540 -0.0430  1.7064 -3.2492
  795SOL    HW2 2385   0.191   1.720   2.663 -1.6818  0.2284 -0.5053
  796SOL     OW 2386   2.200   1.933   2.063 -0.1062  0.0173  0.2449
  796SOL    HW1 2387   2.269   2.009   2.076 -0.6893  0.0408  0.2064
  796SOL    HW2 2388   2.127   1.931   2.136  1.1210 -0.3190  2.8309
  797SOL     OW 2389   0.043   0.322   3.049 -0.3364  0.3685  0.2881
  797SOL    HW1 2390   0.068   0.244   2.987 -0.6158 -1.3508  0.9102
  797SOL    HW2 2391   0.017   0.289   3.141 -1.5799  1.0840  1.5073
  798SOL     OW 2392   3.610   2.715   2.310  0.0981 -0.3299  0.4136
  798SOL    HW1 2393   3.584   2.733   2.209 -0.5294  0.3510 -2.3590
  798SOL    HW2 2394   3.603   2.613   2.332  1.7195 -0.6753  0.4602
  799SOL     OW 2395   3.261   2.736   3.599 -0.1963  0.5191 -0.0322
  799SOL    HW1 2396   3.322   2.794   3.659 -1.4271 -1.3654 -0.4645
  799SOL    HW2 2397   3.163   2.767   3.615  1.2508 -2.6801 -0.2052
  800SOL     OW 2398   1.235   1.895   0.826 -0.4381 -0.3303  0.5148
  800SOL    HW1 2399   1.189   1.983   0.854  2.2514  0.4629 -1.8379
  800SOL    HW2 2400   1.327   1.882   0.871  1.3454  0.4986  0.4699
  801SOL     OW 2401   3.296   0.809   0.862  0.2474  0.4532  0.3329
  801SOL    HW1 2402   3.336   0.896   0.825 -1.8949  0.8987  0.0598
  801SOL    HW2 2403   3.213   0.822   0.922 -2.3998 -1.9457  2.6834
  802SOL     OW 2404   3.093   1.853   0.531 -0.2610 -0.1484 -0.5033
  802SOL    HW1 2405   3.109   1.949   0.499  3.1633  2.0359  1.1011
  802SOL    HW2 2406   2.993   1.841   0.553  0.6883 -2.3064  0.5221
  803SOL     OW 2407   2.004   2.257   3.398  0.2033 -0.2868 -0.1614
  803SOL    HW1 2408   1.976   2.275   3.300 -1.2899  2.3422 -1.5968
  803SOL    HW2 2409   2.095   2.303   3.413 -0.0663 -0.6735 -0.5836
  804SOL     OW 2410   2.374   2.301   0.345  0.6168  0.6160 -0.0624
  804SOL    HW1 2411   2.371   2.239   0.429 -0.6786 -0.9255  0.1136
  804SOL    HW2 2412   2.407   2.247   0.262 -1.4699  0.8908 -2.0436
  805SOL     OW 2413   3.420   1.924   3.010 -0.2622 -0.7057  0.7411
  805SOL    HW1 2414   3.365   1.963   3.087  1.5734 -0.1728  1.5518
  805SOL    HW2 2415   3.428   1.990   2.932  1.0409 -3.9030  2.1444
  806SOL     OW 2416   0.377   0.326   0.473 -0.1398 -0.1118  0.1547
  806SOL    HW1 2417   0.378   0.381   0.561 -0.3054 -0.2060 -0.0027
  806SOL    HW2 2418   0.298   0.260   0.468  3.1081  1.4952 -1.5393
  807SOL     OW 2419   2.882   1.567   2.957  0.1240  0.2323 -0.3021
  807SOL    HW1 2420   2.813   1.506   3.006  1.8866  1.2107 -0.3067
  807SOL    HW2 2421   2.960   1.513   2.918 -3.1920 -2.9626 -0.8905
  808SOL     OW 2422   0.159   1.707   0.604  0.2778 -0.0498 -0.2234
  808SOL    HW1 2423   0.141   1.619   0.656 -0.9977  1.8881  1.6339
  808SOL    HW2 2424   0.189   1.786   0.662 -0.6617 -1.2119 -0.5666
  809SOL     OW 2425   2.992   0.643   3.343 -0.3917 -0.0353  0.0136
  809SOL    HW1 2426   3.046   0.703   3.407 -0.2221 -0.3556  0.8560
  809SOL    HW2 2427   2.891   0.663   3.346 -1.0164  0.6817  0.1484
  810SOL     OW 2428   1.077   0.853   0.441 -0.1773 -0.4036  0.1708
  810SOL    HW1 2429   1.121   0.767   0.403  1.8285 -2.0356 -1.1494
  810SOL    HW2 2430   1.036   0.912   0.367  0.9448 -2.2556  1.1064
  811SOL     OW 2431   1.833   3.001   0.935  0.2280 -0.3037 -0.1071
  811SOL    HW1 2432   1.744   3.052   0.938 -0.5131 -1.0634  4.2150
  811SOL    HW2 2433   1.822   2.912   0.882  1.8044  3.1109  0.4302
  812SOL     OW 2434   0.911   3.121   1.948  0.0228  0.7590 -0.5966
  812SOL    HW1 2435   0.880   3.023   1.954 -0.9552  0.0848 -0.6372
  812SOL    HW2 2436   0.960   3.148   2.035 -1.3384 -1.0700 -1.3882
  813SOL     OW 2437   1.267   0.342   2.305  0.2578  0.0058 -0.2861
  813SOL    HW1 2438   1.248   0.246   2.333 -0.7739 -0.6071 -4.9743
  813SOL    HW2 2439   1.204   0.409   2.354  3.6662 -1.6509 -2.1528
  814SOL     OW 2440   1.564   3.585   3.247 -0.1862 -0.2538 -0.1842
  814SOL    HW1 2441   1.506   3.634   3.317  0.1002 -0.5915  1.1390
  814SOL    HW2 2442   1.535   3.487   3.230 -0.3544  0.5934 -1.6830
  815SOL     OW 2443   0.728   0.715   2.304  0.8303  0.1181  0.2475
  815SOL    HW1 2444   0.665   0.762   2.238  1.2584 -1.1338  0.3655
  815SOL    HW2 2445   0.747   0.779   2.381  0.6274 -1.0166 -0.2076
  816SOL     OW 2446   2.687   0.509   3.598 -0.1979  0.2126 -0.1113
  816SOL    HW1 2447   2.615   0.480   3.666  0.6634 -0.1711 -4.0656
  816SOL    HW2 2448   2.749   0.432   3.570  0.9823 -3.1327 -0.7321
  817SOL     OW 2449   2.104   0.211   3.306 -0.8577  0.0732 -0.4198
  817SOL    HW1 2450   2.090   0.309   3.280  2.1485  1.1550 -0.3224
  817SOL    HW2 2451   2.020   0.162   3.337 -0.6943  1.5621  0.4097
  818SOL     OW 2452   2.477   0.461   0.186  0.2510 -0.4807 -0.0860
  818SOL    HW1 2453   2.493   0.361   0.210 -3.0813 -0.2127 -2.9789
  818SOL    HW2 2454   2.446   0.512   0.271  0.4275 -1.4700  0.5624
  819SOL     OW 2455   2.782   1.818   0.152 -0.5292  0.3110  0.1368
  819SOL    HW1 2456   2.841   1.899   0.174 -0.5833  1.5359 -0.1179
  819SOL    HW2 2457   2.839   1.734   0.136 -1.3343 -0.7483  2.7008
  820SOL     OW 2458   3.450   2.375   0.050  0.2246  0.1904  0.1318
  820SOL    HW1 2459   3.395   2.462   0.034  1.8876 -0.0302 -2.4562
  820SOL    HW2 2460   3.390   2.293   0.030 -0.4700 -3.0652  1.4555
  821SOL     OW 2461   0.455   3.090   1.802  0.2272  0.6526  0.8039
  821SOL    HW1 2462   0.361   3.124   1.823 -1.5059 -1.4775 -1.1731
  821SOL    HW2 2463   0.456   3.065   1.702 -0.1917  1.2683 -0.5613
  822SOL     OW 2464   3.219   3.117   2.830  0.0616  0.2975  0.1152
  822SOL    HW1 2465   3.212   3.218   2.820 -0.5521 -0.0425 -0.9618
  822SOL    HW2 2466   3.140   3.067   2.785 -2.7833 -1.7201  1.1082
  823SOL     OW 2467   1.856   3.513   2.787 -0.5696  0.7163 -0.2104
  823SOL    HW1 2468   1.883   3.581   2.715 -0.6906 -1.9129  2.7898
  823SOL    HW2 2469   1.801   3.567   2.855 -1.0501  0.5791 -2.2048
  824SOL     OW 2470   2.862   2.052   1.271  0.5467 -0.0823  0.1507
  824SOL    HW1 2471   2.909   2.080   1.184  1.2881 -0.3311  0.0922
  824SOL    HW2 2472   2.861   1.949   1.283 -0.7106  1.6329 -1.7017
  825SOL     OW 2473   3.318   2.275   3.049 -0.1936 -0.1996  0.2891
  825SOL    HW1 2474   3.269   2.350   2.995 -0.4031 -3.8866 -1.3452
  825SOL    HW2 2475   3.420   2.297   3.035 -0.9310  0.1890  5.1914
  826SOL     OW 2476   3.353   1.612   2.590 -0.0740 -0.0291  0.3256
  826SOL    HW1 2477   3.258   1.626   2.553 -1.1025  0.6822  2.7741
  826SOL    HW2 2478   3.359   1.625   2.692  4.7349  0.6232  0.6575
  827SOL     OW 2479   2.934   3.044   2.047 -0.7097 -0.3870 -0.2738
  827SOL    HW1 2480   2.960   2.951   2.005 -0.3661 -0.1308 -0.2436
  827SOL    HW2 2481   2.832   3.051   2.064  0.4903 -1.5049  1.3272
  828SOL     OW 2482   3.466   3.505   1.868  0.4210 -0.4344 -0.3432
  828SOL    HW1 2483   3.425   3.489   1.775  1.2129 -0.1303 -0.6044
  828SOL    HW2 2484   3.543   3.573   1.858  0.7420 -0.6860 -0.0846
  829SOL     OW 2485   2.326   2.242   2.724 -0.4310 -0.3402 -0.0093
  829SOL    HW1 2486   2.230   2.259   2.692 -0.9901  0.9703 -1.7701
  829SOL    HW2 2487   2.333   2.247   2.827 -2.5341  0.4139 -2.0118
  830SOL     OW 2488   1.832   0.775   1.053  0.0732 -0.6639 -0.1847
  830SOL    HW1 2489   1.888   0.688   1.043  3.5137  0.6929 -0.3680
  830SOL    HW2 2490   1.895   0.857   1.070 -0.9933  1.2091 -0.1622
  831SOL     OW 2491   3.467   1.773   0.924 -0.1111 -0.8347  0.0632
  831SOL    HW1 2492   3.523   1.694   0.960 -2.4347 -1.6614 -0.9348
  831SOL    HW2 2493   3.423   1.745   0.834  1.8891  0.4547 -1.3244
  832SOL     OW 2494   1.793   2.728   2.204  0.5144  0.8330 -0.4151
  832SOL    HW1 2495   1.760   2.825   2.196 -1.1187  0.0575 -1.7607
  832SOL    HW2 2496   1.892   2.724   2.175  2.0628  0.1510 -0.7366
  833SOL     OW 2497   3.603   3.514   2.692  0.3839  0.1042 -0.0192
  833SOL    HW1 2498   3.520   3.508   2.630 -0.8201 -1.6753  0.1463
  833SOL    HW2 2499   3.589   3.474   2.786 -0.1711  1.6844 -0.2443
  834SOL     OW 2500   1.281   1.221   1.512  1.1560  0.0676  0.1837
  834SOL    HW1 2501   1.307   1.182   1.604  1.1882 -0.4467 -1.4330
  834SOL    HW2 2502   1.354   1.194   1.442 -0.9578 -1.1788 -0.3532
  835SOL     OW 2503   0.014   0.887   3.293  0.2011  0.0629 -0.2954
  835SOL    HW1 2504  -0.089   0.893   3.279  0.8291  0.1759 -2.2125
  835SOL    HW2 2505   0.039   0.892   3.393  0.4379 -0.1296 -0.5704
  836SOL     OW 2506   1.221   2.782   1.199 -0.4264  0.2676 -0.2423
  836SOL    HW1 2507   1.132   2.837   1.196 -2.9224 -3.0264 -2.4513
  836SOL    HW2 2508   1.283   2.821   1.271  1.3264  0.4776 -1.7706
  837SOL     OW 2509   2.521   0.978   1.462 -0.0824 -0.0647  0.7615
  837SOL    HW1 2510   2.440   0.970   1.398  0.1577 -1.4523  0.3320
  837SOL    HW2 2511   2.495   1.040   1.541  0.7904  1.5538  2.6931
  838SOL     OW 2512   1.674   1.988   3.323 -0.1144 -0.4020 -0.2379
  838SOL    HW1 2513   1.751   1.995   3.392  0.3730  1.3992 -1.9153
  838SOL    HW2 2514   1.693   2.058   3.249  0.5277  0.6924 -1.7246
  839SOL     OW 2515   0.658   2.710   3.295 -0.3564  0.0352  0.4699
  839SOL    HW1 2516   0.682   2.610   3.288 -0.9248  3.2512  1.5185
  839SOL    HW2 2517   0.598   2.734   3.375  1.7129 -1.9693  0.2169
  840SOL     OW 2518   0.901   2.880   3.342  0.1291  0.2380  0.3905
  840SOL    HW1 2519   0.817   2.823   3.324 -2.9828 -0.4107  1.6712
  840SOL    HW2 2520   0.906   2.961   3.279  2.6932  2.6022 -1.0394
  841SOL     OW 2521   2.234   2.415   3.423 -0.2461  0.3870 -0.1610
  841SOL    HW1 2522   2.329   2.377   3.437  0.7739 -1.8231 -1.9738
  841SOL    HW2 2523   2.214   2.488   3.492 -1.9740  0.9466 -0.4854
  842SOL     OW 2524   1.821   1.035   3.299 -0.1763  0.4045 -0.1696
  842SOL    HW1 2525   1.831   1.139   3.293 -0.5787 -0.9018 -1.2361
  842SOL    HW2 2526   1.728   1.000   3.269 -1.1543 -1.5320  0.3537
  843SOL     OW 2527   1.608   3.493   0.912  0.3910  0.3406 -0.5797
  843SOL    HW1 2528   1.709   3.512   0.919  0.2399 -1.0730  0.6085
  843SOL    HW2 2529   1.571   3.527   0.822 -0.9994  1.4299  0.4191
  844SOL     OW 2530   2.896   3.388   3.142 -0.3871  0.6195  0.6672
  844SOL    HW1 2531   2.875   3.334   3.227  0.2264  1.9052  0.3797
  844SOL    HW2 2532   2.994   3.423   3.135  2.5364 -1.4823 -1.5653
  845SOL     OW 2533   3.376   3.454   1.605 -0.3411 -0.1549  0.0183
  845SOL    HW1 2534   3.376   3.541   1.549 -0.6990 -1.6111 -2.3494
  845SOL    HW2 2535   3.283   3.409   1.605  1.5683  1.7942 -0.1818
  846SOL     OW 2536   0.250   2.610   2.591  0.2993  0.2036 -0.2190
  846SOL    HW1 2537   0.227   2.700   2.549 -1.1037  2.2435 -0.5532
  846SOL    HW2 2538   0.275   2.623   2.690 -2.6028 -0.4321  0.1810
  847SOL     OW 2539   1.976   0.177   1.697  0.3218 -0.0738 -0.5773
  847SOL    HW1 2540   1.882   0.203   1.731 -1.9395  3.7820 -0.0506
  847SOL    HW2 2541   2.012   0.099   1.755  1.2074 -0.2463  1.1374
  848SOL     OW 2542   3.326   0.706   0.098  0.0734  0.0615 -0.0144
  848SOL    HW1 2543   3.426   0.683   0.093 -1.2171  2.5829  0.6160
  848SOL    HW2 2544   3.268   0.623   0.114  0.5482  0.3106  2.2115
  849SOL     OW 2545   0.612   0.702   0.154 -0.0075  0.5425 -0.8999
  849SOL    HW1 2546   0.545   0.740   0.222 -0.2290 -0.0235 -0.6504
  849SOL    HW2 2547   0.586   0.606   0.125  2.9139  0.5492  2.0805
  850SOL     OW 2548   0.393   3.183   1.249 -0.1603 -0.0100 -0.5259
  850SOL    HW1 2549   0.296   3.216   1.253 -2.5226  0.2794 -0.8204
  850SOL    HW2 2550   0.450   3.256   1.203  2.7839  0.8257  2.6716
  851SOL     OW 2551   2.272   0.233   2.842  0.0815 -0.3497  0.5079
  851SOL    HW1 2552   2.176   0.254   2.863  0.1529 -2.2508  0.3430
  851SOL    HW2 2553   2.279   0.182   2.752 -1.9857 -1.1718  1.7366
  852SOL     OW 2554   1.823   1.837   2.740 -0.1616 -0.4816 -0.6289
  852SOL    HW1 2555   1.796   1.771   2.812 -3.4916  1.1444  1.3930
  852SOL    HW2 2556   1.739   1.871   2.688  0.3688  0.0064  2.1172
  853SOL     OW 2557   0.113   3.452   0.555 -0.3668 -0.3542  0.3053
  853SOL    HW1 2558   0.111   3.372   0.488 -2.7646 -0.2492  0.4704
  853SOL    HW2 2559   0.169   3.426   0.637 -0.4745 -0.8711  2.8158
  854SOL     OW 2560   2.856   3.612   0.808 -0.6248  0.4542 -0.1232
  854SOL    HW1 2561   2.805   3.701   0.802 -0.0419 -1.8378  0.0040
  854SOL    HW2 2562   2.814   3.547   0.740  0.2468  2.2348  0.6616
  855SOL     OW 2563   1.651   2.520   0.865  0.0109 -0.1102  0.4486
  855SOL    HW1 2564   1.611   2.465   0.789 -1.6805 -2.6242  0.2306
  855SOL    HW2 2565   1.578   2.564   0.923  1.7638  0.5059  2.5410
  856SOL     OW 2566   2.805   0.551   0.437 -0.1361  0.2089 -0.4525
  856SOL    HW1 2567   2.783   0.450   0.440 -1.5481 -2.4177  1.1843
  856SOL    HW2 2568   2.903   0.567   0.466 -1.4282  1.1746  0.4772
  857SOL     OW 2569   2.179   2.967   2.055 -0.5460  0.6604  0.0395
  857SOL    HW1 2570   2.221   3.001   2.143 -1.0608  1.6588  0.8952
  857SOL    HW2 2571   2.251   2.932   1.993 -0.4921  3.5367 -0.7623
  858SOL     OW 2572   3.032   2.615   1.615 -0.1773 -0.8262  0.4647
  858SOL    HW1 2573   3.102   2.632   1.543 -2.6095  0.9287  0.6276
  858SOL    HW2 2574   2.938   2.597   1.576  0.2818  3.2448 -1.0904
  859SOL     OW 2575   1.360   2.993   0.882 -0.1708 -0.4357 -0.6167
  859SOL    HW1 2576   1.273   3.027   0.929  0.0035 -1.7659 -0.1432
  859SOL    HW2 2577   1.438   3.057   0.907  0.4994  1.6973 -0.2587
  860SOL     OW 2578   2.587   2.804   0.271  0.1030  0.7860 -0.1197
  860SOL    HW1 2579   2.607   2.718   0.324 -0.8682  0.6400 -0.1856
  860SOL    HW2 2580   2.589   2.784   0.169 -0.2791  0.0558  1.4507
  861SOL     OW 2581   2.470   2.774   1.096 -0.5194  0.3230 -0.2600
  861SOL    HW1 2582   2.492   2.826   1.009  0.6536  2.4531  1.5321
  861SOL    HW2 2583   2.554   2.761   1.154 -1.8484  0.6354 -0.9903
  862SOL     OW 2584   2.080   3.256   3.248  0.1004 -0.1015  0.2753
  862SOL    HW1 2585   2.067   3.320   3.169 -1.7669 -0.6091  0.0173
  862SOL    HW2 2586   2.087   3.308   3.336 -0.4852  1.1359 -2.7317
  863SOL     OW 2587   0.651   0.023   0.354 -0.4462  0.1151 -0.0310
  863SOL    HW1 2588   0.685  -0.025   0.438 -1.3453  0.1186 -1.0191
  863SOL    HW2 2589   0.684  -0.019   0.266  1.7195 -3.9927 -0.6757
  864SOL     OW 2590   3.071   3.080   2.395  0.5889 -0.0577 -0.0666
  864SOL    HW1 2591   3.160   3.029   2.389 -0.2475  0.5197  0.1222
  864SOL    HW2 2592   3.015   3.066   2.309 -0.9036  0.1723 -1.0571
  865SOL     OW 2593   0.016   2.429   3.313  0.6198  0.1384  0.3053
  865SOL    HW1 2594   0.037   2.387   3.404  2.0974  1.7561 -2.0990
  865SOL    HW2 2595  -0.052   2.506   3.323  2.3916  0.0791  2.0376
  866SOL     OW 2596   3.040   0.356   3.295  0.3408 -0.3980  0.4041
  866SOL    HW1 2597   3.112   0.334   3.225  1.0335  1.5554 -0.2956
  866SOL    HW2 2598   3.028   0.458   3.303 -3.7970 -1.5873  0.8096
  867SOL     OW 2599   3.544   3.438   3.029  0.6579  0.1736  0.2962
  867SOL    HW1 2600   3.463   3.501   3.035  2.7008 -2.2993 -1.2569
  867SOL    HW2 2601   3.528   3.359   3.094 -0.6183  1.2547  0.6732
  868SOL     OW 2602   0.980   3.222   0.942  0.0941  0.3096 -0.1308
  868SOL    HW1 2603   1.033   3.309   0.959 -2.3525 -0.5986  3.0276
  868SOL    HW2 2604   0.981   3.198   0.842 -1.6561  1.5104 -1.5606
  869SOL     OW 2605   1.584   1.592   1.440 -0.0639 -0.1472  0.3612
  869SOL    HW1 2606   1.542   1.679   1.403  0.5812  1.7812 -0.6838
  869SOL    HW2 2607   1.658   1.553   1.383  0.2671  0.6073 -0.8930
  870SOL     OW 2608   2.238   2.058   1.341  0.0044  0.1789 -0.2451
  870SOL    HW1 2609   2.272   1.960   1.345  0.4201  0.4878  0.4181
  870SOL    HW2 2610   2.289   2.125   1.401  0.7035  1.5929  1.5733
  871SOL     OW 2611   1.212   1.694   1.221 -0.4955 -0.3797  0.1187
  871SOL    HW1 2612   1.206   1.633   1.137 -1.9997 -0.7339 -1.0317
  871SOL    HW2 2613   1.139   1.767   1.218  0.7596  1.2055  0.4799
  872SOL     OW 2614   1.345   0.625   0.884 -0.2362 -0.1677 -0.2628
  872SOL    HW1 2615   1.426   0.673   0.844  0.3502 -0.8814 -3.5808
  872SOL    HW2 2616   1.349   0.610   0.987  0.2478  1.3189 -1.2949
  873SOL     OW 2617   2.030   0.542   3.219 -0.0509  0.0589  0.6080
  873SOL    HW1 2618   2.091   0.598   3.282 -2.0366 -0.8658  2.4504
  873SOL    HW2 2619   2.026   0.587   3.126 -0.4159 -0.2619 -0.4782
  874SOL     OW 2620   0.620   1.442   1.350  0.0125 -0.5373  0.6284
  874SOL    HW1 2621   0.651   1.525   1.406 -0.1458  0.3747  3.3627
  874SOL    HW2 2622   0.536   1.462   1.291 -2.3797  0.4483 -0.1475
  875SOL     OW 2623   3.252   3.235   3.563  0.1790 -0.2042  0.6947
  875SOL    HW1 2624   3.236   3.163   3.491 -0.5590 -2.3486  0.9552
  875SOL    HW2 2625   3.243   3.331   3.525  0.7449 -0.4127  0.7215
  876SOL     OW 2626   0.943   0.665   3.440 -0.3160  0.7903  0.9339
  876SOL    HW1 2627   0.945   0.685   3.542  0.6752  0.3488  2.1014
  876SOL    HW2 2628   1.003   0.731   3.388  0.4007 -0.6641  1.0806
  877SOL     OW 2629   3.630   3.279   1.617  0.0197  0.2271  0.3721
  877SOL    HW1 2630   3.695   3.317   1.547  4.1358  1.0140  2.2029
  877SOL    HW2 2631   3.546   3.339   1.622 -1.0032 -0.1501 -0.4527
  878SOL     OW 2632   2.322   2.240   3.008  0.4260 -0.4157 -0.4735
  878SOL    HW1 2633   2.253   2.306   3.046 -0.8008 -0.5846 -1.7250
  878SOL    HW2 2634   2.412   2.249   3.058 -1.2916  1.7625  0.2261
  879SOL     OW 2635   2.580   2.063   2.155  0.0604 -0.5593 -0.2632
  879SOL    HW1 2636   2.603   2.056   2.256  0.4956 -2.8968  0.2071
  879SOL    HW2 2637   2.649   2.016   2.094  1.8237 -2.1544 -0.2501
  880SOL     OW 2638   1.115   1.206   1.058  0.5510  0.1200  0.1200
  880SOL    HW1 2639   1.198   1.252   1.100  0.4989  1.3614 -1.0928
  880SOL    HW2 2640   1.120   1.105   1.075  1.3199  0.1706 -1.0892
  881SOL     OW 2641   1.483   1.819   0.062  0.2376  0.6190  0.0847
  881SOL    HW1 2642   1.470   1.911   0.110  0.1417 -0.2278  2.1871
  881SOL    HW2 2643   1.527   1.755   0.129 -1.0614 -2.5430  3.2244
  882SOL     OW 2644   2.179   3.630   1.331  0.2421 -0.1680 -0.0315
  882SOL    HW1 2645   2.190   3.700   1.406  1.1714  1.6358 -2.1202
  882SOL    HW2 2646   2.263   3.623   1.272  1.5631 -0.7842 -3.4996
  883SOL     OW 2647   2.255   0.791   2.481  0.3328 -0.2752 -0.2124
  883SOL    HW1 2648   2.164   0.744   2.470 -0.2637 -0.9105 -1.2021
  883SOL    HW2 2649   2.332   0.723   2.483  0.8195 -1.6993  0.9734
  884SOL     OW 2650   3.162   0.820   3.526  0.2658 -0.1893 -0.1150
  884SOL    HW1 2651   3.221   0.865   3.453 -0.8168  0.8205  0.3337
  884SOL    HW2 2652   3.221   0.785   3.603 -0.8269 -1.3823  0.3821
  885SOL     OW 2653   1.363   2.700   0.965  0.2976 -0.2339 -0.6422
  885SOL    HW1 2654   1.379   2.793   0.921  3.4715  1.8570 -1.4935
  885SOL    HW2 2655   1.317   2.715   1.055 -2.6885  1.4353  2.6495
  886SOL     OW 2656   1.525   0.977   3.196 -0.0668 -0.2654  0.4853
  886SOL    HW1 2657   1.459   0.921   3.251 -1.2970 -2.1865 -2.3679
  886SOL    HW2 2658   1.473   1.059   3.162 -0.0034 -2.1390 -2.4241
  887SOL     OW 2659   2.055   3.608   1.879  0.2175 -0.5370  0.1120
  887SOL    HW1 2660   2.123   3.637   1.950 -0.9716  3.2729 -3.0526
  887SOL    HW2 2661   1.979   3.551   1.916 -0.1039 -2.0645 -0.7360
  888SOL     OW 2662   3.364   1.989   1.897  0.6228 -0.1154  0.0183
  888SOL    HW1 2663   3.443   1.989   1.964 -2.0764  1.3701 -1.3773
  888SOL    HW2 2664   3.376   1.914   1.826 -1.8100 -0.8686  0.9142
  889SOL     OW 2665   3.559   3.267   0.825  0.0233  0.5294  0.1973
  889SOL    HW1 2666   3.491   3.246   0.900 -1.3556 -0.9856  0.6265
  889SOL    HW2 2667   3.537   3.357   0.779  1.5252  0.7411 -0.2088
  890SOL     OW 2668   0.791   2.286   2.572 -0.2494 -0.3536  1.0109
  890SOL    HW1 2669   0.804   2.389   2.565 -0.9438 -0.8953 -1.7679
  890SOL    HW2 2670   0.730   2.258   2.492 -0.4859  2.4358  0.8225
  891SOL     OW 2671   0.837   2.031   0.683 -0.9988 -0.1021 -0.0676
  891SOL    HW1 2672   0.913   2.081   0.732  2.3221  0.6793  1.7818
  891SOL    HW2 2673   0.771   2.098   0.637  0.1964  0.8676  0.4173
  892SOL     OW 2674   3.113   3.047   1.456  0.1950  0.0647 -0.1043
  892SOL    HW1 2675   3.153   3.015   1.546  0.7822  0.4841 -0.8220
  892SOL    HW2 2676   3.161   3.003   1.374 -1.8914 -2.0760 -0.7530
  893SOL     OW 2677   0.254   0.559   2.080  0.4193 -0.0520 -0.3070
  893SOL    HW1 2678   0.249   0.523   1.982 -1.6133  1.3871  0.9898
  893SOL    HW2 2679   0.261   0.661   2.082  1.6187  0.4409 -1.7719
  894SOL     OW 2680   3.247   2.184   1.165 -0.3655  0.0313  0.1673
  894SOL    HW1 2681   3.159   2.170   1.115  0.7947  1.6563  0.4188
  894SOL    HW2 2682   3.278   2.087   1.189  0.9047  0.4701 -0.4725
  895SOL     OW 2683   1.415   2.915   1.672  0.1481  0.2176 -0.2747
  895SOL    HW1 2684   1.489   2.858   1.716  3.1846 -0.2115  1.8573
  895SOL    HW2 2685   1.410   3.011   1.710 -0.5385 -0.4568 -0.6990
  896SOL     OW 2686   0.886   0.402   1.563 -0.0699  0.0525 -0.0516
  896SOL    HW1 2687   0.823   0.399   1.645 -0.9552  0.2500 -1.2303
  896SOL    HW2 2688   0.983   0.418   1.593 -0.3248 -0.5365 -2.3732
  897SOL     OW 2689   1.405   1.337   1.156  0.8471  0.1621  0.3500
  897SOL    HW1 2690   1.415   1.420   1.216 -1.3741 -1.2607 -0.2467
  897SOL    HW2 2691   1.451   1.254   1.197  0.1866 -0.2398  1.8119
  898SOL     OW 2692   0.953   0.377   2.024  0.5818  0.0206 -0.1822
  898SOL    HW1 2693   0.941   0.463   2.080  0.2644 -2.7918  1.2448
  898SOL    HW2 2694   1.049   0.338   2.024  1.8886 -0.9824  0.7530
  899SOL     OW 2695   1.725   0.420   0.239  0.0709  0.0479 -0.5326
  899SOL    HW1 2696   1.820   0.452   0.210  2.4946  2.5725 -0.6924
  899SOL    HW2 2697   1.663   0.501   0.255  1.5639 -0.0516 -0.7278
  900SOL     OW 2698   1.216   0.785   2.844  0.2810  0.3798 -0.2287
  900SOL    HW1 2699   1.196   0.881   2.876 -0.7573  1.9490 -0.6615
  900SOL    HW2 2700   1.171   0.767   2.752 -0.4959 -0.0482  0.0996
  901SOL     OW 2701   0.855   2.395   0.534 -0.0021 -0.3437  0.0634
  901SOL    HW1 2702   0.941   2.348   0.502  2.2284 -1.7668  0.7592
  901SOL    HW2 2703   0.774   2.354   0.484 -1.2896  0.4056  0.1189
  902SOL     OW 2704   2.154   0.232   0.848  0.1092 -0.2704  0.5580
  902SOL    HW1 2705   2.184   0.171   0.770  2.7284  0.0342 -0.5562
  902SOL    HW2 2706   2.082   0.181   0.903  2.7206  3.0761  0.8358
  903SOL     OW 2707   0.050   1.617   3.008 -0.2471  0.2336  0.3273
  903SOL    HW1 2708   0.103   1.695   2.965 -1.3477  0.3002 -2.6520
  903SOL    HW2 2709  -0.037   1.602   2.953  2.2345 -1.0616 -0.3517
  904SOL     OW 2710   1.992   1.460   0.479 -0.3144  0.2991  0.0649
  904SOL    HW1 2711   1.935   1.494   0.557 -0.2036 -0.7246 -1.7946
  904SOL    HW2 2712   2.013   1.359   0.487  0.0779 -0.5436  0.9627
  905SOL     OW 2713   2.282   3.232   1.570 -0.1131  0.2034  0.2267
  905SOL    HW1 2714   2.216   3.269   1.499 -0.8434 -1.2726  2.0122
  905SOL    HW2 2715   2.301   3.132   1.554 -1.2604 -0.5628  0.7665
  906SOL     OW 2716   2.640   3.123   0.986 -0.3353 -0.2635 -0.3489
  906SOL    HW1 2717   2.577   3.205   0.981  0.8064 -2.6056 -2.6754
  906SOL    HW2 2718   2.692   3.122   1.076  1.5221 -1.3897  1.4311
  907SOL     OW 2719   2.601   1.157   0.480  0.7634  1.3678 -0.0184
  907SOL    HW1 2720   2.569   1.060   0.494  0.1236  0.5312 -0.7249
  907SOL    HW2 2721   2.536   1.224   0.523  2.3661  1.7444 -0.7671
  908SOL     OW 2722   2.215   0.301   1.614 -0.7677 -0.0484 -0.5827
  908SOL    HW1 2723   2.205   0.402   1.600  2.1004 -0.1463 -2.0020
  908SOL    HW2 2724   2.125   0.262   1.645  1.9729 -1.3419  1.0374
  909SOL     OW 2725   2.856   3.344   1.191  0.5260  0.0106  0.5196
  909SOL    HW1 2726   2.833   3.401   1.107 -0.4223  1.5519  0.8671
  909SOL    HW2 2727   2.852   3.401   1.278 -3.2178  1.1060  1.0594
  910SOL     OW 2728   2.697   0.635   2.326 -0.2873 -0.2324 -0.0635
  910SOL    HW1 2729   2.622   0.630   2.396  0.2777  0.2305 -0.4312
  910SOL    HW2 2730   2.777   0.574   2.348 -0.1237  0.5998 -1.2043
  911SOL     OW 2731   2.222   0.022   3.099  0.1284  0.4511  0.3382
  911SOL    HW1 2732   2.188   0.085   3.174  0.2635  0.4993  1.2792
  911SOL    HW2 2733   2.264   0.074   3.022 -0.2487 -2.3207 -0.6550
  912SOL     OW 2734   0.616   1.084   1.550  0.2383 -0.2011 -0.5261
  912SOL    HW1 2735   0.714   1.114   1.546 -0.8663  0.3693 -1.2322
  912SOL    HW2 2736   0.607   0.982   1.539 -0.3306  0.4406 -3.8617
  913SOL     OW 2737   2.851   3.066   1.288  0.1754  0.3657 -0.0787
  913SOL    HW1 2738   2.848   3.165   1.259  3.4458  2.0830  0.8918
  913SOL    HW2 2739   2.926   3.053   1.357  1.2975  0.8019 -0.6170
  914SOL     OW 2740   1.356   0.539   1.184 -0.2388  0.4068  0.4331
  914SOL    HW1 2741   1.443   0.523   1.237  1.4263  2.6379  2.2508
  914SOL    HW2 2742   1.320   0.448   1.150 -3.0612 -1.3108  0.9006
  915SOL     OW 2743   0.391   1.857   1.605  0.6574 -0.5407 -0.1193
  915SOL    HW1 2744   0.376   1.860   1.503  1.9323 -0.0817  1.7370
  915SOL    HW2 2745   0.397   1.951   1.649 -1.4049 -1.5742 -0.0333
  916SOL     OW 2746   2.233   2.617   1.095 -0.4600  0.8968 -0.1912
  916SOL    HW1 2747   2.318   2.675   1.100 -0.1141  0.8405  0.5828
  916SOL    HW2 2748   2.152   2.673   1.121  1.4000  1.4648  1.0654
  917SOL     OW 2749   2.354   2.809   2.707  0.3638  0.4697  0.1347
  917SOL    HW1 2750   2.370   2.798   2.606  2.0043 -1.7053  1.3516
  917SOL    HW2 2751   2.279   2.878   2.723 -1.4383 -0.6870  1.2277
  918SOL     OW 2752   2.376   1.931   3.015 -0.3043  0.1283  0.4185
  918SOL    HW1 2753   2.458   1.927   3.079 -1.5123 -1.1067  1.0660
  918SOL    HW2 2754   2.341   2.028   3.006  0.0579  2.5763  0.3186
  919SOL     OW 2755   0.887   0.642   1.355 -0.2221  0.3175 -0.2994
  919SOL    HW1 2756   0.883   0.565   1.423  0.5963 -1.9411  0.3459
  919SOL    HW2 2757   0.983   0.679   1.347 -2.8647  0.5827 -2.5282
  920SOL     OW 2758   3.321   0.879   2.483  0.0163 -0.0946  0.3386
  920SOL    HW1 2759   3.338   0.817   2.402 -1.7552  2.1346 -0.5053
  920SOL    HW2 2760   3.387   0.860   2.558  2.0926 -0.0568  2.3807
  921SOL     OW 2761   2.942   1.436   1.719 -0.7452  0.6380 -0.8134
  921SOL    HW1 2762   3.014   1.396   1.656  0.7866  2.9232  0.2965
  921SOL    HW2 2763   2.986   1.472   1.805  0.6933 -0.6881  0.0927
  922SOL     OW 2764   3.256   2.688   0.955 -0.1422 -0.3405 -0.3306
  922SOL    HW1 2765   3.214   2.624   1.024 -1.5291 -0.5714 -3.3420
  922SOL    HW2 2766   3.184   2.760   0.939 -2.1566  0.8317 -1.4269
  923SOL     OW 2767   0.045   2.722   0.652  0.1480  0.4870 -0.0828
  923SOL    HW1 2768   0.086   2.708   0.747 -0.3226 -1.3890  1.3435
  923SOL    HW2 2769   0.112   2.694   0.575 -2.3167  1.2017  0.2595
  924SOL     OW 2770   1.121   1.413   3.500 -0.6137 -0.5415  0.1574
  924SOL    HW1 2771   1.188   1.463   3.438 -0.3862 -1.4032 -1.9775
  924SOL    HW2 2772   1.047   1.476   3.534  0.1575  2.1638  2.6229
  925SOL     OW 2773   3.605   1.531   1.033 -0.1619  0.2841  0.0491
  925SOL    HW1 2774   3.662   1.557   1.115  0.6215 -3.3024 -3.6730
  925SOL    HW2 2775   3.543   1.452   1.056 -1.6259  2.3864 -2.9804
  926SOL     OW 2776   0.122   0.029   1.495  0.4559  0.5357 -0.2232
  926SOL    HW1 2777   0.225   0.011   1.489 -1.3199 -0.2764 -0.5953
  926SOL    HW2 2778   0.082   0.006   1.402 -0.1070 -2.1731 -0.3778
  927SOL     OW 2779   0.718   2.110   2.841 -0.1616 -0.4095  0.4052
  927SOL    HW1 2780   0.798   2.046   2.854  2.8279  1.1484  1.4285
  927SOL    HW2 2781   0.723   2.156   2.749  0.7372  1.0686 -0.5236
  928SOL     OW 2782   0.412   0.780   2.776  0.1956 -0.1659  0.1635
  928SOL    HW1 2783   0.451   0.685   2.791 -0.9262 -1.5694  1.6173
  928SOL    HW2 2784   0.352   0.804   2.857  2.9465 -2.8676  0.0660
  929SOL     OW 2785   3.132   2.501   1.150 -0.4247  0.4212 -0.1494
  929SOL    HW1 2786   3.031   2.509   1.137  0.5965 -0.2499 -1.5374
  929SOL    HW2 2787   3.160   2.401   1.149 -1.4109  3.9582 -0.7490
  930SOL     OW 2788   2.010   0.289   2.881 -0.3763  0.0102 -0.7275
  930SOL    HW1 2789   1.931   0.237   2.927  1.6332 -3.1755 -2.7596
  930SOL    HW2 2790   1.977   0.373   2.830  0.9931 -0.7270  1.8305
  931SOL     OW 2791   2.902   1.129   3.326 -0.1445 -0.1555  0.5070
  931SOL    HW1 2792   2.916   1.145   3.428 -0.0651  3.1915  2.5182
  931SOL    HW2 2793   2.819   1.070   3.310  0.1651 -0.1544 -2.5194
  932SOL     OW 2794   2.112   1.049   0.762  0.7572  0.3368 -0.2108
  932SOL    HW1 2795   2.094   1.091   0.671  0.4791 -0.6158 -0.0036
  932SOL    HW2 2796   2.165   0.962   0.753 -0.1886 -0.0575 -2.9402
  933SOL     OW 2797   2.747   0.732   0.867  0.2571  0.0340  0.0601
  933SOL    HW1 2798   2.692   0.708   0.782  0.2103 -0.3170 -2.1713
  933SOL    HW2 2799   2.775   0.830   0.864 -1.6595 -0.1857 -0.9618
  934SOL     OW 2800   3.114   1.395   2.823 -0.6474  0.0526 -0.9432
  934SOL    HW1 2801   3.189   1.322   2.826  1.4642  0.3162  0.9376
  934SOL    HW2 2802   3.079   1.397   2.726 -1.6011  0.6245  2.3690
  935SOL     OW 2803   0.129   1.589   1.286 -0.1157 -0.2459  0.6208
  935SOL    HW1 2804   0.099   1.684   1.313 -1.9004  1.3250  0.4899
  935SOL    HW2 2805   0.123   1.530   1.371  1.0192 -0.1699 -1.2274
  936SOL     OW 2806   0.038   3.500   0.080 -0.1163 -0.1573 -0.1380
  936SOL    HW1 2807   0.059   3.399   0.081  1.0794 -1.7470 -1.0497
  936SOL    HW2 2808   0.115   3.551   0.126 -2.2424  0.0853 -1.1201
  937SOL     OW 2809   3.359   2.936   2.402  0.9084  0.4157 -0.1948
  937SOL    HW1 2810   3.373   2.930   2.505  1.4198  1.0482 -1.3680
  937SOL    HW2 2811   3.393   2.855   2.350  0.5207 -2.6522  1.4274
  938SOL     OW 2812   2.644   2.748   3.540 -0.5945  0.0451 -0.0964
  938SOL    HW1 2813   2.704   2.665   3.544  0.3943  0.3566  0.4729
  938SOL    HW2 2814   2.564   2.730   3.478  3.4346 -2.4475 -0.8830
  939SOL     OW 2815   1.233   0.712   1.658  0.5853 -0.3723  0.5555
  939SOL    HW1 2816   1.331   0.748   1.668 -3.6736 -1.1418 -0.8869
  939SOL    HW2 2817   1.163   0.771   1.707  2.0861 -2.8807  1.5585
  940SOL     OW 2818   2.779   3.413   3.621 -0.1016 -0.2362  1.0481
  940SOL    HW1 2819   2.689   3.455   3.591 -0.5976 -1.5328  0.7239
  940SOL    HW2 2820   2.814   3.343   3.553 -0.0383  1.7611 -3.8173
  941SOL     OW 2821   3.089   3.343   2.498 -0.1692 -0.3892 -0.1047
  941SOL    HW1 2822   3.006   3.397   2.468 -2.3436  0.9489  1.2085
  941SOL    HW2 2823   3.084   3.247   2.464  2.3450 -3.1604 -0.8899
  942SOL     OW 2824   1.905   0.017   1.227 -0.2952  0.5225 -0.5390
  942SOL    HW1 2825   1.840  -0.049   1.272  0.2835 -1.9961  1.7578
  942SOL    HW2 2826   2.002   0.010   1.262  0.3712  0.8623  0.9267
  943SOL     OW 2827   1.483   1.865   2.880  0.4972 -0.0351 -0.1749
  943SOL    HW1 2828   1.558   1.807   2.924  1.1638 -1.0969 -0.2857
  943SOL    HW2 2829   1.511   1.888   2.784 -1.0970  1.6304 -1.9073
  944SOL     OW 2830   3.180   1.017   1.579 -0.1099  0.0842 -0.0298
  944SOL    HW1 2831   3.259   0.972   1.528 -1.1647  2.5548  1.0377
  944SOL    HW2 2832   3.106   0.945   1.583  0.3300 -1.8095  1.0889
  945SOL     OW 2833   3.157   0.051   3.214 -0.2230  0.4779 -0.2051
  945SOL    HW1 2834   3.068   0.095   3.244 -3.3079  2.3702 -0.2727
  945SOL    HW2 2835   3.208   0.123   3.157 -0.6943  2.2010  0.7565
  946SOL     OW 2836   0.056   1.691   1.641 -0.0052  0.1687  0.1464
  946SOL    HW1 2837   0.139   1.753   1.643  0.4488  1.7377  0.9023
  946SOL    HW2 2838   0.084   1.594   1.620  0.6163  2.7452  1.9906
  947SOL     OW 2839   0.515   0.480   3.272  0.3232  0.0761  0.4427
  947SOL    HW1 2840   0.524   0.380   3.295  1.1022  0.0858  0.7748
  947SOL    HW2 2841   0.440   0.499   3.203 -1.2565 -0.3025  0.3483
  948SOL     OW 2842   2.334   1.779   1.396  0.3493  0.7066  0.2500
  948SOL    HW1 2843   2.336   1.772   1.499  2.0366  0.9749  0.0104
  948SOL    HW2 2844   2.415   1.729   1.356  1.0086 -1.1994  2.0588
  949SOL     OW 2845   0.455   1.484   3.438  0.1003 -0.0843 -0.1107
  949SOL    HW1 2846   0.467   1.563   3.372 -1.0178  0.1518  0.8377
  949SOL    HW2 2847   0.393   1.410   3.400  2.2211  1.8851  0.4242
  950SOL     OW 2848   0.682   3.286   1.874  0.1229 -0.1301 -0.3050
  950SOL    HW1 2849   0.605   3.223   1.849  0.0071  0.8336 -1.3565
  950SOL    HW2 2850   0.767   3.231   1.898  1.4413  0.8637  0.8127
  951SOL     OW 2851   0.980   2.558   2.900 -0.2479 -0.9750  0.0137
  951SOL    HW1 2852   0.912   2.496   2.945 -1.4358  0.9619 -1.0191
  951SOL    HW2 2853   1.066   2.569   2.954  0.8839  0.1231 -0.6651
  952SOL     OW 2854   0.779   1.268   0.678 -0.5010 -0.7700  0.7933
  952SOL    HW1 2855   0.750   1.181   0.722 -0.5742  1.8722  0.7239
  952SOL    HW2 2856   0.743   1.279   0.582 -0.4549  0.6974  2.3590
  953SOL     OW 2857   2.603   1.863   3.486 -0.4015 -0.8273 -0.4392
  953SOL    HW1 2858   2.517   1.806   3.495 -1.3422 -1.2710 -1.0700
  953SOL    HW2 2859   2.666   1.852   3.568 -1.4927  0.5393 -2.2016
  954SOL     OW 2860   1.792   0.298   0.554 -0.1374 -0.6109 -0.1201
  954SOL    HW1 2861   1.774   0.306   0.453 -0.5991  1.8328  2.2255
  954SOL    HW2 2862   1.837   0.207   0.573  2.3480  2.1740 -1.4471
  955SOL     OW 2863   1.030   1.845   0.120  0.4987 -0.5033 -0.6066
  955SOL    HW1 2864   0.999   1.775   0.052  1.7807 -1.2248  0.6515
  955SOL    HW2 2865   1.088   1.801   0.194 -2.0839  0.9950  0.3276
  956SOL     OW 2866   3.263   0.429   2.362 -0.6432  0.2346 -0.2642
  956SOL    HW1 2867   3.286   0.524   2.328 -1.9577 -0.3742 -1.1562
  956SOL    HW2 2868   3.306   0.408   2.453  2.1851  0.2845  1.3706
  957SOL     OW 2869   2.289   2.283   2.329 -0.2998  0.1524 -0.6611
  957SOL    HW1 2870   2.187   2.274   2.332 -0.3691  0.8718  1.2320
  957SOL    HW2 2871   2.340   2.207   2.378  2.8068  0.1991  0.5395
  958SOL     OW 2872   2.046   1.031   1.428 -0.1340  0.1945  0.5346
  958SOL    HW1 2873   2.097   1.119   1.420  0.6058  5.8027  1.6025
  958SOL    HW2 2874   2.061   0.982   1.518 -1.2414 -1.5577 -1.6181
  959SOL     OW 2875   1.707   2.519   2.416 -0.1429  0.4122 -0.3994
  959SOL    HW1 2876   1.743   2.426   2.387  1.2670  0.9671 -1.2740
  959SOL    HW2 2877   1.719   2.594   2.346 -0.3035  0.6034  0.9500
  960SOL     OW 2878   0.923   1.452   3.055  0.3078  0.9250 -0.3737
  960SOL    HW1 2879   1.012   1.473   3.004  0.3563  2.0830  1.2349
  960SOL    HW2 2880   0.843   1.457   2.990  3.3341  0.9524 -2.4979
  961SOL     OW 2881   3.215   1.431   0.163  0.4908  0.0349  0.2488
  961SOL    HW1 2882   3.228   1.518   0.220 -0.1375  2.0913 -2.0442
  961SOL    HW2 2883   3.123   1.436   0.115  2.0405 -3.4312 -0.1103
  962SOL     OW 2884   1.021   2.127   0.091  0.0541 -0.2481 -0.0674
  962SOL    HW1 2885   1.026   2.025   0.091  0.0182  1.0170  1.7303
  962SOL    HW2 2886   1.093   2.172   0.033 -0.7589  0.2108 -3.6506
  963SOL     OW 2887   3.295   1.824   0.005  0.0653 -0.0569 -0.3703
  963SOL    HW1 2888   3.253   1.780   0.090  1.5730 -1.1813 -1.6779
  963SOL    HW2 2889   3.392   1.799  -0.019  2.6522  1.1889  1.6945
  964SOL     OW 2890   0.826   2.574   2.545 -0.1524  0.6417  0.4363
  964SOL    HW1 2891   0.891   2.590   2.623 -0.3530  1.4103 -1.1186
  964SOL    HW2 2892   0.786   2.665   2.518  0.5604  1.2617 -1.3942
  965SOL     OW 2893   1.487   2.220   1.637  0.5508 -0.0847 -0.0148
  965SOL    HW1 2894   1.531   2.261   1.555 -0.8256  1.0562  1.2010
  965SOL    HW2 2895   1.446   2.127   1.617  0.6135 -0.0190 -0.2136
  966SOL     OW 2896   3.557   1.757   0.461 -0.5347  0.2362 -0.5526
  966SOL    HW1 2897   3.644   1.747   0.516 -1.5579 -1.3989  1.9199
  966SOL    HW2 2898   3.564   1.719   0.364  1.6993 -1.5068  0.7463
  967SOL     OW 2899   2.239   3.096   3.052 -0.7346  0.4262  0.4963
  967SOL    HW1 2900   2.176   3.146   3.116 -2.6183  0.5315  0.8313
  967SOL    HW2 2901   2.330   3.082   3.099  0.3456 -0.2805 -1.2504
  968SOL     OW 2902   1.702   1.518   3.388  0.4745  0.8582 -0.7762
  968SOL    HW1 2903   1.747   1.527   3.482  2.7959 -0.2861  1.3453
  968SOL    HW2 2904   1.627   1.588   3.383  1.1882 -0.8973 -0.1699
  969SOL     OW 2905   0.192   1.079   2.879  0.0324  0.5326  0.5255
  969SOL    HW1 2906   0.189   1.154   2.806  2.3119  1.1158 -1.4051
  969SOL    HW2 2907   0.263   1.101   2.951 -0.7119  1.8599 -1.1715
  970SOL     OW 2908   2.756   0.246   0.464 -0.3474  0.0987  0.4444
  970SOL    HW1 2909   2.668   0.225   0.416 -0.9432  2.9403 -0.4406
  970SOL    HW2 2910   2.832   0.177   0.451  0.1095  1.5527 -0.8354
  971SOL     OW 2911   1.873   2.343   0.927  0.0767 -0.4649 -0.0185
  971SOL    HW1 2912   1.798   2.412   0.914  0.7075  0.9332 -0.7612
  971SOL    HW2 2913   1.917   2.352   1.020  1.5071  0.0185  0.3062
  972SOL     OW 2914   0.227   2.389   3.113 -0.0295 -0.3016  0.8789
  972SOL    HW1 2915   0.153   2.405   3.181  0.4426  3.5367 -0.1327
  972SOL    HW2 2916   0.302   2.329   3.151 -1.0108 -0.6215  0.1735
  973SOL     OW 2917   0.603   0.625   0.518 -0.4076  0.1215 -0.3776
  973SOL    HW1 2918   0.538   0.684   0.464 -0.4252 -3.6844  0.7792
  973SOL    HW2 2919   0.631   0.539   0.467  0.9081  0.9596 -1.9073
  974SOL     OW 2920   3.255   0.755   2.014  0.0531  0.3105 -0.1697
  974SOL    HW1 2921   3.288   0.690   1.942 -0.8941  0.8422 -0.6742
  974SOL    HW2 2922   3.152   0.771   2.010  0.6896 -0.5096 -0.8631
  975SOL     OW 2923   0.366   3.613   0.958  0.3942  0.8638 -0.1895
  975SOL    HW1 2924   0.329   3.537   0.899  2.8905 -1.4516 -0.5848
  975SOL    HW2 2925   0.426   3.675   0.902 -1.6428  1.1011 -0.0385
  976SOL     OW 2926   0.896   1.866   1.708 -0.4697 -0.3327 -0.0001
  976SOL    HW1 2927   0.817   1.801   1.692 -2.9182  2.9275 -0.2402
  976SOL    HW2 2928   0.868   1.966   1.709  0.8672 -1.6753  0.0570
  977SOL     OW 2929   1.533   2.384   0.651 -0.3239 -0.2695 -0.0896
  977SOL    HW1 2930   1.565   2.433   0.566 -0.8030  1.7156  0.1458
  977SOL    HW2 2931   1.536   2.281   0.641 -1.3169  0.9970  0.2357
  978SOL     OW 2932   0.093   1.341   0.045 -0.2366 -0.7671  0.8140
  978SOL    HW1 2933   0.072   1.350  -0.056 -1.0332 -0.6439  1.5558
  978SOL    HW2 2934   0.191   1.314   0.065  1.4758  0.0373 -2.6662
  979SOL     OW 2935   2.314   1.354   0.310 -0.2012 -0.4916  0.1578
  979SOL    HW1 2936   2.276   1.264   0.277  2.9656  0.9029  1.4943
  979SOL    HW2 2937   2.353   1.342   0.407  1.4773 -0.8987  0.9077
  980SOL     OW 2938   0.903   1.971   2.200 -0.1090 -0.5641  0.8629
  980SOL    HW1 2939   0.863   1.908   2.128  0.2456 -1.0289 -0.2165
  980SOL    HW2 2940   0.853   1.951   2.290 -3.6698  1.7928  0.0996
  981SOL     OW 2941   2.600   1.655   2.707  0.2669  0.4362  0.1388
  981SOL    HW1 2942   2.679   1.661   2.774  1.1356  0.7724 -1.4037
  981SOL    HW2 2943   2.593   1.554   2.681 -1.5883 -0.8446 -3.0242
  982SOL     OW 2944   0.478   2.571   2.017  1.0218 -0.1684  0.1348
  982SOL    HW1 2945   0.477   2.673   1.999  0.0104 -1.8002 -0.9570
  982SOL    HW2 2946   0.478   2.557   2.119 -0.0362  0.4674  1.1930
  983SOL     OW 2947   1.811   3.215   2.392 -0.0576  0.7526 -0.0378
  983SOL    HW1 2948   1.792   3.305   2.347 -0.0212 -1.3051  2.1172
  983SOL    HW2 2949   1.797   3.138   2.325  1.8981  0.9004  2.6089
  984SOL     OW 2950   3.608   0.199   3.310 -0.8792 -0.0491 -0.4335
  984SOL    HW1 2951   3.580   0.265   3.383  4.0088 -0.1816 -0.4754
  984SOL    HW2 2952   3.580   0.104   3.337 -2.1616  2.9403  1.8000
  985SOL     OW 2953   1.746   1.599   2.126 -0.1930 -0.2886 -0.0503
  985SOL    HW1 2954   1.799   1.607   2.037  2.8355  1.6416  0.2092
  985SOL    HW2 2955   1.674   1.526   2.126 -0.5360  2.2321 -0.5120
  986SOL     OW 2956   2.055   0.531   0.011  0.0501 -0.4663  0.4666
  986SOL    HW1 2957   2.146   0.581   0.020 -0.9036 -2.8715  1.3505
  986SOL    HW2 2958   1.982   0.585  -0.038 -0.4016  1.0149 -2.6910
  987SOL     OW 2959   0.296   2.670   2.944  0.2735  0.3081 -0.0007
  987SOL    HW1 2960   0.383   2.714   2.980  2.5318 -0.3362  2.9787
  987SOL    HW2 2961   0.282   2.580   2.992  0.6076 -0.7054 -0.8348
  988SOL     OW 2962   3.355   0.301   1.846 -0.1118  0.7530 -0.2658
  988SOL    HW1 2963   3.443   0.253   1.819 -2.2792 -1.2171  2.8158
  988SOL    HW2 2964   3.278   0.277   1.784 -2.4938 -0.9900  1.0024
  989SOL     OW 2965   2.429   3.624   1.178 -0.5674  0.3111  0.2179
  989SOL    HW1 2966   2.438   3.546   1.110  3.5586  1.8692  0.8096
  989SOL    HW2 2967   2.488   3.702   1.141  0.3727 -0.1236 -0.2472
  990SOL     OW 2968   3.283   1.009   0.231 -0.0978 -0.3306 -0.2439
  990SOL    HW1 2969   3.298   1.074   0.153 -1.5249 -0.3732 -0.1801
  990SOL    HW2 2970   3.303   0.912   0.202  0.0425  0.8466  0.6160
  991SOL     OW 2971   0.336   1.218   0.735 -0.0891  0.0674 -0.5023
  991SOL    HW1 2972   0.264   1.292   0.730 -0.4223  3.3645  2.4529
  991SOL    HW2 2973   0.390   1.227   0.822  1.1406  0.0313 -1.7185
  992SOL     OW 2974   2.110   1.890   1.788 -0.0604  0.0207 -0.1360
  992SOL    HW1 2975   2.079   1.980   1.746 -2.6959 -0.0437  1.0913
  992SOL    HW2 2976   2.139   1.906   1.886 -0.6964 -0.6808 -0.9521
  993SOL     OW 2977   3.472   2.836   1.137  0.3027 -0.0339 -0.0304
  993SOL    HW1 2978   3.511   2.768   1.205  0.5690 -2.5349  3.0659
  993SOL    HW2 2979   3.406   2.790   1.073 -1.9987  0.7970  2.1904
  994SOL     OW 2980   3.611   2.162   1.511  0.6345 -0.4827 -0.3342
  994SOL    HW1 2981   3.509   2.181   1.515  2.8317  0.0727  0.6664
  994SOL    HW2 2982   3.651   2.169   1.607  0.7529  0.1496 -0.0309
  995SOL     OW 2983   2.433   1.418   3.318  0.1352  0.3843 -0.6761
  995SOL    HW1 2984   2.383   1.339   3.362  1.1879 -1.1785  1.6194
  995SOL    HW2 2985   2.406   1.509   3.357 -2.1075 -1.1446  2.5456
  996SOL     OW 2986   2.150   2.833   0.634  0.4753  0.6651 -0.2322
  996SOL    HW1 2987   2.127   2.819   0.535 -0.5317  1.7218 -1.3129
  996SOL    HW2 2988   2.209   2.759   0.674 -1.6112 -0.1129 -0.0381
  997SOL     OW 2989   1.715   1.853   2.259  0.2603 -0.6191 -0.7873
  997SOL    HW1 2990   1.647   1.908   2.205 -0.7330 -0.0989  0.9986
  997SOL    HW2 2991   1.729   1.761   2.215  0.8392  1.5780  0.1886
  998SOL     OW 2992   3.583   3.036   0.589 -0.1415 -0.2846  0.1905
  998SOL    HW1 2993   3.604   2.940   0.617  1.2084  2.4564 -1.4827
  998SOL    HW2 2994   3.580   3.100   0.671 -1.2584 -1.3724  1.7046
  999SOL     OW 2995   0.723   3.561   0.096  0.1253  0.3148  0.2648
  999SOL    HW1 2996   0.692   3.476   0.050  0.8478 -1.8604 -0.1477
  999SOL    HW2 2997   0.723   3.644   0.034 -0.2022  1.5566 -1.2374
 1000SOL     OW 2998   1.045   0.256   0.089 -0.0726 -0.0503  0.3035
 1000SOL    HW1 2999   1.138   0.300   0.082  0.0931  1.1450 -1.6218
 1000SOL    HW2 3000   1.002   0.265  -0.004  1.5190  0.9682  0.6520
   3.63593   3.63593   3.63593
