1000 SPC/Fw water molecules
 3000
    1SOL     OW    1   1.537   3.417   0.308 -0.6619  0.1560 -0.6524
    1SOL    HW1    2   1.490   3.507   0.293  3.3474 -0.7614 -0.8923
    1SOL    HW2    3   1.490   3.366   0.385  0.7358  2.2171  2.0313
    2SOL     OW    4   1.810   0.854   1.780  0.2904  0.0282  0.9216
    2SOL    HW1    5   1.897   0.830   1.728 -2.2958  0.2026 -2.1830
    2SOL    HW2    6   1.821   0.935   1.844  2.0557  1.9814  1.1787
    3SOL     OW    7   0.772   0.096   2.840 -0.7258  0.5604  0.3593
    3SOL    HW1    8   0.778   0.195   2.866  2.7104  3.4037 -1.1373
    3SOL    HW2    9   0.722   0.039   2.909 -0.2527 -0.7077 -1.1373
    4SOL     OW   10   1.889   2.022   3.511  0.4360  0.1956 -0.8450
    4SOL    HW1   11   1.929   2.113   3.481 -1.2897  0.6410 -0.5084
    4SOL    HW2   12   1.847   2.035   3.604 -0.1934 -0.6768 -0.1969
    5SOL     OW   13   0.949   1.496   2.420 -0.0792 -0.3828  0.5709
    5SOL    HW1   14   0.965   1.395   2.437 -1.0925 -2.1409 -0.8182
    5SOL    HW2   15   1.040   1.544   2.413  0.8843 -2.1379  2.3011
    6SOL     OW   16   2.806   1.162   2.638 -0.7352 -0.5422 -0.7798
    6SOL    HW1   17   2.865   1.108   2.702 -3.4383 -1.0183 -3.9267
    6SOL    HW2   18   2.760   1.099   2.572 -1.7725  0.7152  0.7706
    7SOL     OW   19   0.006   1.046   1.585 -0.2391 -0.6006  0.2534
    7SOL    HW1   20  -0.041   1.134   1.611 -0.0130 -0.5297  1.2011
    7SOL    HW2   21   0.097   1.060   1.541  0.7621 -1.4437  2.0634
    8SOL     OW   22   2.681   3.017   2.347  0.0526  0.0294  0.0400
    8SOL    HW1   23   2.667   3.037   2.247  0.4549 -0.1065  3.0713
    8SOL    HW2   24   2.693   3.104   2.401  1.8210 -1.8443 -0.5819
    9SOL     OW   25   0.120   3.151   0.387  0.0265 -0.0317 -0.3219
    9SOL    HW1   26   0.056   3.111   0.456 -2.2827  2.1590 -2.1493
    9SOL    HW2   27   0.202   3.090   0.370  0.1175  2.0684 -0.7637
   10SOL     OW   28   0.104   2.889   2.963 -0.9829 -0.3009 -0.7729
   10SOL    HW1   29   0.148   2.973   2.922 -1.9032 -0.0286 -1.6773
   10SOL    HW2   30   0.163   2.806   2.947 -2.2766  1.3974  0.7137
   11SOL     OW   31   0.204   2.152   0.141  0.0532 -0.1600 -0.8923
   11SOL    HW1   32   0.280   2.082   0.148 -0.5571  3.5774 -0.6864
   11SOL    HW2   33   0.162   2.164   0.235 -1.8035  2.3854 -0.4219
   12SOL     OW   34   2.742   3.496   0.511 -0.2304 -0.4686 -0.2057
   12SOL    HW1   35   2.826   3.551   0.490  0.9960  0.7002 -2.5685
   12SOL    HW2   36   2.721   3.439   0.428 -0.7553 -0.9219 -2.8814
   13SOL     OW   37   0.296   0.534   3.082 -0.2729 -0.5973 -0.1709
   13SOL    HW1   38   0.214   0.471   3.077 -5.3896 -1.4574 -0.6742
   13SOL    HW2   39   0.263   0.631   3.078 -1.6419 -0.5830 -0.0738
   14SOL     OW   40   1.568   0.857   1.625  0.0791  0.1819 -0.5711
   14SOL    HW1   41   1.652   0.850   1.683 -1.0170 -1.4248  0.4445
   14SOL    HW2   42   1.593   0.841   1.527  0.2412  4.4475 -1.3730
   15SOL     OW   43   0.756   1.633   2.604  0.3876 -0.5050 -0.1346
   15SOL    HW1   44   0.702   1.702   2.550  0.2388 -0.9199  0.8163
   15SOL    HW2   45   0.831   1.595   2.545 -0.5381  2.2321 -0.6710
   16SOL     OW   46   2.109   1.009   3.283  0.7652  0.0121  0.1860
   16SOL    HW1   47   2.008   1.018   3.298 -0.3263  3.8317 -0.5513
   16SOL    HW2   48   2.128   1.013   3.180 -0.9201 -1.7710  0.7433
   17SOL     OW   49   0.164   2.849   2.467 -0.6040 -0.6980  0.1240
   17SOL    HW1   50   0.125   2.929   2.518  3.6330  1.9056  1.2082
   17SOL    HW2   51   0.096   2.813   2.400 -0.8750 -2.5207 -0.7012
   18SOL     OW   52   1.755   1.402   1.008  0.5192  0.2866 -0.4019
   18SOL    HW1   53   1.795   1.310   0.982 -1.5739 -1.0855  0.7352
   18SOL    HW2   54   1.656   1.411   0.979  0.5977  4.5741 -1.7783
   19SOL     OW   55   0.162   1.288   1.982 -0.6201  0.4789 -0.0931
   19SOL    HW1   56   0.238   1.344   1.941 -4.0992  2.5963 -0.4219
   19SOL    HW2   57   0.201   1.239   2.066  0.0185  1.0410  2.3004
   20SOL     OW   58   2.127   2.447   3.134 -0.4652 -0.0412  0.1998
   20SOL    HW1   59   2.100   2.533   3.084 -1.9072 -0.7112 -1.5876
   20SOL    HW2   60   2.165   2.461   3.229  1.0848 -3.1280 -0.0483
   21SOL     OW   61   1.981   1.923   1.221 -0.3269 -0.3836  0.1389
   21SOL    HW1   62   2.052   1.988   1.259 -1.8563 -0.7400  3.5250
   21SOL    HW2   63   2.009   1.826   1.239  1.7203  1.4436  3.6554
   22SOL     OW   64   2.322   2.660   1.655  0.5576  0.3242 -0.1223
   22SOL    HW1   65   2.233   2.612   1.676  3.0250  1.6418 -1.0465
   22SOL    HW2   66   2.313   2.716   1.568 -1.6920  1.1175  0.3686
   23SOL     OW   67   3.119   1.285   1.555 -0.1689  0.0876 -0.7608
   23SOL    HW1   68   3.146   1.190   1.580  0.5513 -0.1235  1.3650
   23SOL    HW2   69   3.080   1.288   1.459 -0.2162 -0.5569  2.2506
   24SOL     OW   70   2.369   1.709   1.998  0.1557  0.1410  0.5834
   24SOL    HW1   71   2.306   1.783   2.030 -1.4441  2.7037  1.1263
   24SOL    HW2   72   2.436   1.684   2.073 -1.3264  2.6609 -1.1951
   25SOL     OW   73   2.057   3.438   3.039  0.2533  0.5349  0.3416
   25SOL    HW1   74   2.127   3.514   3.051 -0.2644 -0.3584  0.7809
   25SOL    HW2   75   1.998   3.458   2.958  0.6678  0.2244  1.3899
   26SOL     OW   76   0.434   3.164   0.754  0.5860 -0.4404 -0.0674
   26SOL    HW1   77   0.520   3.197   0.800 -2.0951 -0.0861  0.1375
   26SOL    HW2   78   0.453   3.088   0.685 -0.5181  1.2146 -2.2158
   27SOL     OW   79   1.416   1.450   0.888 -0.2250 -0.0598 -0.0923
   27SOL    HW1   80   1.407   1.403   0.979 -1.0852  2.2294  1.4643
   27SOL    HW2   81   1.327   1.488   0.856 -1.1627 -2.0612 -3.3455
   28SOL     OW   82   2.268   2.813   1.402 -0.9427  0.0044  0.0731
   28SOL    HW1   83   2.346   2.820   1.333 -2.5704 -1.0645 -2.8523
   28SOL    HW2   84   2.172   2.805   1.359  0.6918  1.1759  0.3887
   29SOL     OW   85   2.559   3.276   2.739  0.3567  1.1268  0.6316
   29SOL    HW1   86   2.641   3.249   2.795 -1.2762  0.9317 -0.8903
   29SOL    HW2   87   2.474   3.243   2.788  0.5441 -1.2883 -1.7501
   30SOL     OW   88   0.111   3.246   2.196 -0.0057  0.5601 -0.2330
   30SOL    HW1   89   0.013   3.219   2.210  1.8447  0.5155 -2.7614
   30SOL    HW2   90   0.126   3.334   2.248 -2.6376 -2.5636  0.8166
   31SOL     OW   91   3.496   2.110   2.784 -0.0586  0.6140  0.2460
   31SOL    HW1   92   3.566   2.157   2.843 -1.0218 -3.2409  0.2749
   31SOL    HW2   93   3.536   2.074   2.696 -0.4383  0.1880  1.4423
   32SOL     OW   94   1.211   2.909   2.636 -0.5376  0.2343  0.0911
   32SOL    HW1   95   1.134   2.893   2.702 -1.6173  1.3403 -1.1038
   32SOL    HW2   96   1.300   2.877   2.674 -1.2182 -1.0153  0.0528
   33SOL     OW   97   0.027   0.595   0.019  0.9043 -0.7962 -0.0550
   33SOL    HW1   98   0.048   0.690  -0.013 -2.4460  2.0486 -0.5364
   33SOL    HW2   99   0.109   0.536   0.006 -0.5604  1.7658  1.9894
   34SOL     OW  100   3.216   0.197   0.099  0.2817  0.5546  0.6227
   34SOL    HW1  101   3.291   0.144   0.144 -0.5840  0.9971  0.5917
   34SOL    HW2  102   3.147   0.138   0.050  2.6783  0.6807  0.1350
   35SOL     OW  103   3.355   3.214   1.946 -0.0564 -0.5298  0.0140
   35SOL    HW1  104   3.394   3.186   2.037 -0.1289 -0.9188 -0.5793
   35SOL    HW2  105   3.397   3.305   1.917 -0.9839  2.3475  0.9696
   36SOL     OW  106   2.684   3.603   3.167 -0.3268 -0.2341  0.2891
   36SOL    HW1  107   2.598   3.551   3.186  0.2003 -1.0877 -2.4819
   36SOL    HW2  108   2.756   3.533   3.143 -0.2583  0.0446  0.8956
   37SOL     OW  109   2.110   3.025   0.099 -0.5706 -0.1323 -0.6961
   37SOL    HW1  110   2.091   3.005   0.001  1.4296 -0.8991 -0.7588
   37SOL    HW2  111   2.038   3.083   0.146 -0.9150 -1.0742 -2.5503
   38SOL     OW  112   0.543   0.206   0.819  0.0268 -0.2792  0.3607
   38SOL    HW1  113   0.505   0.292   0.774 -0.1469  1.7415  3.1348
   38SOL    HW2  114   0.606   0.160   0.750 -0.5550  1.4086 -0.8344
   39SOL     OW  115   1.298   2.147   2.530 -0.5169  0.4706  0.1059
   39SOL    HW1  116   1.218   2.149   2.595  2.4481  2.8898 -0.9540
   39SOL    HW2  117   1.339   2.240   2.510  3.1294  0.6075  1.0133
   40SOL     OW  118   3.625   1.144   0.223 -0.0644 -0.0267 -0.2239
   40SOL    HW1  119   3.537   1.173   0.270  0.4537  1.9091 -0.5821
   40SOL    HW2  120   3.663   1.218   0.163 -0.7697 -0.8164 -0.4021
   41SOL     OW  121   1.934   0.067   2.509  0.2226 -0.0557 -0.7472
   41SOL    HW1  122   1.846   0.115   2.535  1.1865 -0.5642 -1.3546
   41SOL    HW2  123   1.918   0.004   2.428 -0.2920 -1.4789 -0.7517
   42SOL     OW  124   2.876   0.145   1.296 -0.7230 -0.2090  0.3502
   42SOL    HW1  125   2.973   0.149   1.259 -1.0370 -1.5874 -1.4096
   42SOL    HW2  126   2.860   0.055   1.344 -0.3852  2.1316  0.3810
   43SOL     OW  127   1.821   0.289   1.395  0.3885  0.1656 -0.2544
   43SOL    HW1  128   1.878   0.267   1.479 -0.2750  0.6866 -0.9514
   43SOL    HW2  129   1.839   0.219   1.320  1.4097 -1.6015 -1.8827
   44SOL     OW  130   0.354   1.043   3.583  0.1523  0.1605 -0.0545
   44SOL    HW1  131   0.440   0.989   3.571 -0.5858  0.1349  0.6517
   44SOL    HW2  132   0.357   1.108   3.662 -1.2870  0.6847  0.4087
   45SOL     OW  133   0.749   1.782   2.028  0.4622 -0.2498 -0.4354
   45SOL    HW1  134   0.782   1.769   1.931  0.8965  2.7164 -0.0585
   45SOL    HW2  135   0.746   1.696   2.082 -0.2605  1.5215  1.3372
   46SOL     OW  136   2.628   2.669   2.013  0.4611  0.3741 -0.5361
   46SOL    HW1  137   2.583   2.582   2.051 -0.1661 -0.3945 -0.0100
   46SOL    HW2  138   2.731   2.678   2.026  0.5591 -2.5380 -1.3084
   47SOL     OW  139   0.434   2.149   1.675  0.0509 -0.0019 -0.0835
   47SOL    HW1  140   0.438   2.174   1.574  2.9005 -0.1286  1.2687
   47SOL    HW2  141   0.389   2.220   1.734  0.4876 -0.8239  2.1762
   48SOL     OW  142   1.288   3.265   3.162  0.4429 -0.3003  0.3144
   48SOL    HW1  143   1.261   3.187   3.099 -1.4190 -0.2085 -3.4810
   48SOL    HW2  144   1.205   3.310   3.199  3.1192  0.5458 -2.1780
   49SOL     OW  145   3.225   1.968   2.222  0.4295  0.5224 -0.6630
   49SOL    HW1  146   3.189   2.021   2.141  0.5457  2.2790 -0.3818
   49SOL    HW2  147   3.221   1.866   2.206  1.9914  2.6056 -0.2420
   50SOL     OW  148   1.072   3.393   0.413  0.2297 -0.4224  0.2687
   50SOL    HW1  149   1.135   3.414   0.492 -1.0063  1.9066 -0.0997
   50SOL    HW2  150   1.043   3.485   0.372 -0.4779  0.4801  1.7359
   51SOL     OW  151   1.351   0.217   1.070  0.7564  0.4081  0.1160
   51SOL    HW1  152   1.402   0.250   0.988 -1.7196 -1.7248  2.6444
   51SOL    HW2  153   1.391   0.129   1.104  3.3141  0.3623 -0.6318
   52SOL     OW  154   0.186   0.969   0.750 -0.1437 -0.0168 -0.2033
   52SOL    HW1  155   0.144   0.957   0.656  0.9975 -0.7222 -0.0010
   52SOL    HW2  156   0.243   1.054   0.750 -2.9978  0.3058 -2.1190
   53SOL     OW  157   1.173   0.203   3.304 -0.2855 -0.2402 -0.2427
   53SOL    HW1  158   1.246   0.155   3.358  2.4882  0.0293  2.0194
   53SOL    HW2  159   1.133   0.139   3.235  1.0227 -0.1137  2.7835
   54SOL     OW  160   2.495   0.585   2.523  0.5367 -0.4310  0.2063
   54SOL    HW1  161   2.530   0.592   2.619 -2.0715 -0.4313 -0.4946
   54SOL    HW2  162   2.461   0.489   2.506  0.9329 -0.1802 -0.0381
   55SOL     OW  163   2.973   0.016   0.435  0.0179  0.4217 -0.0331
   55SOL    HW1  164   3.049  -0.012   0.500 -0.2047 -0.9360  0.0450
   55SOL    HW2  165   3.007   0.011   0.337  0.4919  0.7381  0.2993
   56SOL     OW  166   0.943   0.429   2.616  0.3406  0.6068 -0.4897
   56SOL    HW1  167   0.870   0.419   2.546  0.5526 -1.4082 -2.5065
   56SOL    HW2  168   1.001   0.344   2.616 -0.3752  0.4495  1.5035
   57SOL     OW  169   2.035   1.166   2.720 -0.0337  0.1000  0.7804
   57SOL    HW1  170   2.003   1.264   2.721 -2.6690 -3.7382 -0.1847
   57SOL    HW2  171   2.092   1.149   2.636 -1.5148  0.0914 -0.0604
   58SOL     OW  172   0.284   1.034   2.300  0.7847  0.5857  0.3720
   58SOL    HW1  173   0.323   1.120   2.340  1.2751 -0.2547 -2.3830
   58SOL    HW2  174   0.270   0.969   2.380  1.6212 -0.6859  1.0918
   59SOL     OW  175   1.028   3.177   2.227 -0.5041 -0.5684  0.7381
   59SOL    HW1  176   0.929   3.170   2.256 -2.1873  0.7748 -0.4056
   59SOL    HW2  177   1.084   3.169   2.313  0.2091  0.2853 -0.9029
   60SOL     OW  178   2.558   3.073   0.366  0.7610 -0.0211 -0.3436
   60SOL    HW1  179   2.476   3.093   0.424  0.7228 -0.8087  1.1683
   60SOL    HW2  180   2.567   2.974   0.338 -0.4094 -0.0562 -1.1004
   61SOL     OW  181   1.707   3.120   0.425  0.0812  0.1472 -0.4148
   61SOL    HW1  182   1.621   3.163   0.462 -0.0110  0.5327  2.2519
   61SOL    HW2  183   1.721   3.023   0.456 -0.2671  1.7353  1.7228
   62SOL     OW  184   2.604   3.056   3.505  0.5055 -0.1188  0.0059
   62SOL    HW1  185   2.622   2.956   3.518 -0.5028  0.2178  5.2070
   62SOL    HW2  186   2.535   3.087   3.575  1.0720  0.4281 -1.3595
   63SOL     OW  187   3.075   1.102   0.724  0.3800 -0.2252 -0.1399
   63SOL    HW1  188   3.062   1.084   0.623 -0.8564 -0.5449  2.3011
   63SOL    HW2  189   3.175   1.088   0.750 -0.1920  0.0279  0.8130
   64SOL     OW  190   1.872   1.187   0.093  0.1913  0.1397  0.5653
   64SOL    HW1  191   1.884   1.285   0.118 -0.4929  3.3008 -0.7063
   64SOL    HW2  192   1.772   1.162   0.093  1.9160  0.0635  0.4097
   65SOL     OW  193   0.515   2.887   2.014 -0.2170 -0.2485  0.5532
   65SOL    HW1  194   0.496   2.946   1.929  0.7334 -1.3381  1.2978
   65SOL    HW2  195   0.458   2.927   2.090  0.5213  1.9309  0.9895
   66SOL     OW  196   1.185   1.501   1.535  0.4198 -0.5410  0.0188
   66SOL    HW1  197   1.216   1.404   1.529 -1.5144 -2.1770 -0.9158
   66SOL    HW2  198   1.194   1.550   1.444  1.2721 -0.6428  0.1825
   67SOL     OW  199   2.937   2.213   2.310 -0.8059  0.1808 -0.4766
   67SOL    HW1  200   3.005   2.200   2.232 -1.6933  1.3563 -1.0717
   67SOL    HW2  201   2.938   2.137   2.379  1.3957 -0.9062  1.9484
   68SOL     OW  202   1.405   2.020   2.064 -0.0899 -0.6191  0.2258
   68SOL    HW1  203   1.402   1.951   1.989 -0.4557 -1.0040  1.3452
   68SOL    HW2  204   1.352   1.991   2.147  2.9203 -1.6941  2.3533
   69SOL     OW  205   3.167   0.479   0.090 -0.3977  0.4138 -0.1569
   69SOL    HW1  206   3.077   0.489   0.038 -0.7836  2.2223  0.1306
   69SOL    HW2  207   3.190   0.379   0.104 -1.5049  1.1042 -0.1496
   70SOL     OW  208   2.568   1.360   2.661 -0.1066  0.3882 -0.3775
   70SOL    HW1  209   2.650   1.298   2.658  2.4157 -2.4528 -1.2166
   70SOL    HW2  210   2.517   1.343   2.749 -0.6248 -1.0724 -1.8184
   71SOL     OW  211   1.234   2.490   0.811 -0.1527  0.7085 -0.0410
   71SOL    HW1  212   1.301   2.448   0.745 -0.0311 -1.6627  0.0719
   71SOL    HW2  213   1.282   2.562   0.867 -0.6529 -0.0839 -0.2698
   72SOL     OW  214   2.650   2.075   0.725  0.7362  0.0475 -0.0532
   72SOL    HW1  215   2.717   2.153   0.731  1.8577 -1.5064 -0.7395
   72SOL    HW2  216   2.595   2.062   0.810 -1.3748  3.7627  0.3220
   73SOL     OW  217   1.262   1.084   0.650 -0.6732  0.4243 -0.4252
   73SOL    HW1  218   1.189   1.137   0.697 -0.1284  0.9551  0.9315
   73SOL    HW2  219   1.222   1.011   0.591  1.1263  1.0534 -1.5057
   74SOL     OW  220   3.119   2.505   2.581  0.0639 -0.1516 -0.4662
   74SOL    HW1  221   3.145   2.406   2.603 -2.4792 -2.3434  0.8897
   74SOL    HW2  222   3.133   2.533   2.483  0.0694 -0.9984 -0.3983
   75SOL     OW  223   1.986   1.940   2.314 -0.1985  0.0400  0.7491
   75SOL    HW1  224   1.891   1.910   2.289  2.6464 -3.5634 -0.5230
   75SOL    HW2  225   2.021   1.882   2.391  0.5899 -0.8295  0.4518
   76SOL     OW  226   1.448   1.835   1.329  0.1068 -0.1184 -0.5308
   76SOL    HW1  227   1.368   1.788   1.281  0.6990 -0.8601 -0.8299
   76SOL    HW2  228   1.495   1.900   1.262  2.2292  3.5743  1.8004
   77SOL     OW  229   2.769   1.050   2.003 -0.6678  0.1261 -0.4328
   77SOL    HW1  230   2.697   1.083   2.067 -1.3485 -0.2665  0.0414
   77SOL    HW2  231   2.789   0.949   2.012  0.1735 -0.1303 -2.2282
   78SOL     OW  232   1.957   0.742   0.359  0.3209  0.2465 -0.1862
   78SOL    HW1  233   1.976   0.803   0.278 -1.5087  0.0150 -2.7969
   78SOL    HW2  234   1.865   0.764   0.402  2.0317  2.0990  0.3408
   79SOL     OW  235   1.225   1.944   2.317 -0.0527 -0.2829 -0.1384
   79SOL    HW1  236   1.249   2.006   2.396 -2.6700 -2.8973 -2.5494
   79SOL    HW2  237   1.128   1.953   2.284  1.0266  1.8773 -0.3641
   80SOL     OW  238   1.155   0.443   1.673 -0.2425  0.0660  0.5069
   80SOL    HW1  239   1.179   0.543   1.666 -1.1627  1.3602 -0.1928
   80SOL    HW2  240   1.161   0.414   1.770 -2.1711 -0.4018  1.1953
   81SOL     OW  241   0.350   2.962   0.288 -0.2733  0.2858  0.0480
   81SOL    HW1  242   0.420   2.967   0.211  1.4111  1.2828  2.5702
   81SOL    HW2  243   0.400   2.935   0.374 -2.1760 -0.7788 -1.1326
   82SOL     OW  244   1.250   0.314   2.021 -0.7307  0.0230  0.1915
   82SOL    HW1  245   1.252   0.336   2.122 -2.2746 -0.7316 -2.4449
   82SOL    HW2  246   1.343   0.327   1.981  0.7116 -0.6694  2.1463
   83SOL     OW  247   0.508   2.642   1.173  0.2813 -0.0567 -0.2141
   83SOL    HW1  248   0.437   2.713   1.154 -1.7337 -0.4376  1.0699
   83SOL    HW2  249   0.463   2.550   1.188  0.5961 -2.3227 -0.9748
   84SOL     OW  250   2.939   1.435   1.112  0.3400 -0.2296 -0.0627
   84SOL    HW1  251   2.959   1.362   1.181 -0.6961 -0.7676 -0.5356
   84SOL    HW2  252   2.995   1.418   1.028 -0.8612  1.8306  3.4445
   85SOL     OW  253   2.633   2.238   1.336  0.1318 -0.8518 -0.5044
   85SOL    HW1  254   2.579   2.202   1.415 -0.3446  1.9841 -0.2656
   85SOL    HW2  255   2.706   2.169   1.314  1.3957 -0.6231 -0.8361
   86SOL     OW  256   1.439   2.509   2.546 -0.0542  0.2455  0.6134
   86SOL    HW1  257   1.370   2.568   2.501 -1.0815 -0.9819 -0.2253
   86SOL    HW2  258   1.532   2.505   2.501 -0.6696 -0.7851 -2.7037
   87SOL     OW  259   2.686   1.518   1.012 -0.0862 -0.5778 -0.1632
   87SOL    HW1  260   2.696   1.585   0.934  2.4724 -0.7546 -0.3686
   87SOL    HW2  261   2.776   1.487   1.051 -1.6573 -0.4793 -0.9511
   88SOL     OW  262   0.546   3.415   1.146 -0.0111 -0.5855  0.0192
   88SOL    HW1  263   0.485   3.482   1.097  0.4441  1.6823  3.1872
   88SOL    HW2  264   0.594   3.456   1.227  1.1718  0.4472  2.6464
   89SOL     OW  265   0.652   1.366   1.768 -0.0568  0.6447  0.6038
   89SOL    HW1  266   0.752   1.362   1.795 -3.7740 -1.1000  1.5903
   89SOL    HW2  267   0.631   1.301   1.689 -0.7337 -2.2350 -0.7020
   90SOL     OW  268   3.162   2.106   0.436 -0.0626 -0.0831 -0.0485
   90SOL    HW1  269   3.137   2.201   0.465  1.9029  1.5692 -0.2572
   90SOL    HW2  270   3.265   2.096   0.427 -1.9775 -2.1839 -0.8135
   91SOL     OW  271   0.899   2.271   1.142 -0.0154  0.0088 -0.2372
   91SOL    HW1  272   0.857   2.364   1.154 -4.4181 -0.7821 -0.3978
   91SOL    HW2  273   0.861   2.206   1.213  0.7434 -4.6858 -0.1201
   92SOL     OW  274   2.509   3.519   2.256 -0.2246 -0.0124 -0.5942
   92SOL    HW1  275   2.600   3.553   2.292  0.9716  1.4271 -0.3487
   92SOL    HW2  276   2.440   3.492   2.329  2.8673 -2.1065  1.3205
   93SOL     OW  277   0.715   2.282   3.291  0.6537 -0.2291 -0.3698
   93SOL    HW1  278   0.743   2.276   3.390  0.0025  0.7174 -1.7124
   93SOL    HW2  279   0.621   2.246   3.275  1.9576  0.1130  1.0824
   94SOL     OW  280   2.787   3.595   2.404  0.2515 -0.5684  0.0359
   94SOL    HW1  281   2.787   3.668   2.477  1.1385  1.0780  4.2727
   94SOL    HW2  282   2.835   3.625   2.319 -0.2875  1.3946 -1.1144
   95SOL     OW  283   2.249   0.046   2.071  0.4412 -0.3687 -0.8836
   95SOL    HW1  284   2.265   0.149   2.069 -0.2868 -1.4412  0.1447
   95SOL    HW2  285   2.318  -0.009   2.123  1.1991  1.9151 -1.7238
   96SOL     OW  286   0.813   0.897   2.523 -0.0837  0.3797 -0.4820
   96SOL    HW1  287   0.760   0.911   2.611  0.8956 -3.2350 -0.5005
   96SOL    HW2  288   0.819   0.985   2.470 -0.5733 -1.2133  0.5001
   97SOL     OW  289   2.353   3.446   1.731  0.2480 -0.5993 -0.2651
   97SOL    HW1  290   2.267   3.484   1.773 -2.6203  2.3166 -0.8291
   97SOL    HW2  291   2.336   3.359   1.680 -0.5770  1.5099 -1.1439
   98SOL     OW  292   1.994   2.608   1.869  0.1589 -0.1979  0.2064
   98SOL    HW1  293   2.021   2.659   1.956  0.1849 -0.8988  0.3064
   98SOL    HW2  294   1.981   2.507   1.887  1.1971  0.4027  0.0414
   99SOL     OW  295   0.441   0.843   1.267  0.4804 -0.1973  1.3641
   99SOL    HW1  296   0.385   0.930   1.255 -0.7782  0.5140 -0.7275
   99SOL    HW2  297   0.495   0.828   1.181 -0.1350  0.3618 -1.3274
  100SOL     OW  298   3.496   2.353   2.312  0.0895  0.1981 -0.0393
  100SOL    HW1  299   3.449   2.264   2.333 -0.8430  0.2920  0.0385
  100SOL    HW2  300   3.576   2.365   2.376  0.5666 -0.3017  0.0765
  101SOL     OW  301   1.283   0.404   0.043  0.6970  0.6158  0.5996
  101SOL    HW1  302   1.379   0.370   0.052 -1.0304  2.1196  0.7049
  101SOL    HW2  303   1.266   0.452  -0.049 -0.5783  2.1013  0.1073
  102SOL     OW  304   3.317   0.141   1.465  0.8834 -0.3966 -0.2525
  102SOL    HW1  305   3.401   0.201   1.464 -0.7932 -1.4588 -1.1263
  102SOL    HW2  306   3.250   0.174   1.537  0.3949  1.3581  2.1524
  103SOL     OW  307   0.176   3.480   2.990  0.0892 -0.4201  0.0870
  103SOL    HW1  308   0.192   3.573   2.947  1.3341  1.4800 -3.3664
  103SOL    HW2  309   0.077   3.466   3.012 -1.1786 -1.6071 -0.1272
  104SOL     OW  310   0.180   2.853   1.416 -0.4652  0.4619 -0.1921
  104SOL    HW1  311   0.103   2.912   1.449  0.2886  0.0688 -0.7689
  104SOL    HW2  312   0.271   2.895   1.441 -0.0583  0.2984 -0.2786
  105SOL     OW  313   0.588   1.787   2.405 -0.1448  0.2920 -0.0754
  105SOL    HW1  314   0.535   1.704   2.375  0.4335  3.5262  0.5169
  105SOL    HW2  315   0.536   1.871   2.376  1.0129 -0.8079 -0.9450
  106SOL     OW  316   3.125   3.252   0.642 -0.1790  0.2408 -0.6582
  106SOL    HW1  317   3.107   3.227   0.741 -0.3695  0.6017  0.3982
  106SOL    HW2  318   3.144   3.352   0.635 -0.2159 -2.3846  1.5796
  107SOL     OW  319   0.804   1.350   1.097 -0.1132 -0.0339  0.2169
  107SOL    HW1  320   0.760   1.358   1.190  3.0311 -1.2816 -0.0090
  107SOL    HW2  321   0.887   1.289   1.102 -2.2249 -3.2998 -0.5353
  108SOL     OW  322   3.446   1.327   2.554  0.4652  0.1709 -0.3586
  108SOL    HW1  323   3.405   1.423   2.559 -0.3949  0.9035  1.0065
  108SOL    HW2  324   3.550   1.326   2.551 -1.4827  1.7482  1.8928
  109SOL     OW  325   2.417   3.109   0.091 -0.4057 -0.0283  0.0475
  109SOL    HW1  326   2.316   3.084   0.090 -1.8166  1.2687  1.8352
  109SOL    HW2  327   2.460   3.101   0.185 -2.2671  0.6797 -1.4385
  110SOL     OW  328   0.291   2.572   0.080 -0.2102  0.3049 -0.2470
  110SOL    HW1  329   0.244   2.493   0.034 -1.6333  1.2634  1.0178
  110SOL    HW2  330   0.225   2.639   0.124  0.7369  0.6096 -0.1876
  111SOL     OW  331   3.160   1.133   3.203  0.4536  0.3673 -0.7351
  111SOL    HW1  332   3.149   1.174   3.108  0.7099 -1.0901 -1.7443
  111SOL    HW2  333   3.066   1.125   3.244 -0.6884  0.9774  1.0799
  112SOL     OW  334   2.641   3.091   2.073  0.0122  0.4802 -0.2134
  112SOL    HW1  335   2.626   3.190   2.048 -0.0210 -2.7762 -0.2479
  112SOL    HW2  336   2.574   3.026   2.030  0.0745  2.7642  1.2957
  113SOL     OW  337   2.594   2.226   3.127 -0.2203 -0.0015 -0.0001
  113SOL    HW1  338   2.604   2.130   3.163 -1.6552  0.4609  0.3855
  113SOL    HW2  339   2.642   2.231   3.037  0.1345  1.4632  1.0754
  114SOL     OW  340   0.757   3.606   0.661  0.0569  0.3704  0.3811
  114SOL    HW1  341   0.747   3.517   0.713 -0.2436 -0.6467  0.0870
  114SOL    HW2  342   0.837   3.658   0.697  0.5356  2.6179 -0.5769
  115SOL     OW  343   0.143   1.997   3.418 -0.3566 -0.5133  0.0387
  115SOL    HW1  344   0.118   2.088   3.464  1.7625  1.5008 -1.1560
  115SOL    HW2  345   0.242   1.976   3.433 -0.0665 -0.2953  0.8728
  116SOL     OW  346   3.385   1.575   1.966  0.1302  0.3953  0.0577
  116SOL    HW1  347   3.424   1.482   1.949  2.2129 -0.1828  0.6583
  116SOL    HW2  348   3.453   1.634   2.017 -0.8609  2.0615 -2.8535
  117SOL     OW  349   2.461   0.247   1.744  0.0050 -0.3417  0.0815
  117SOL    HW1  350   2.502   0.159   1.708  2.0895 -1.4574 -1.4147
  117SOL    HW2  351   2.370   0.272   1.701  2.6979 -1.8947 -1.6590
  118SOL     OW  352   3.250   2.588   2.846 -0.1906  0.0929 -0.2193
  118SOL    HW1  353   3.200   2.554   2.762 -0.4001 -2.2207 -0.9354
  118SOL    HW2  354   3.323   2.656   2.819  1.8505  0.2873  0.4315
  119SOL     OW  355   0.455   1.901   2.023  0.5758  0.6846  0.1114
  119SOL    HW1  356   0.444   1.962   1.938  1.3279 -1.6357 -1.4198
  119SOL    HW2  357   0.549   1.861   2.025  0.0777 -1.8844 -3.4755
  120SOL     OW  358   0.269   1.675   2.064 -0.0818  0.3448  0.1884
  120SOL    HW1  359   0.294   1.601   1.994  0.2719  0.1899  0.7336
  120SOL    HW2  360   0.332   1.756   2.050 -0.3862 -1.7144 -0.3147
  121SOL     OW  361   1.835   1.150   0.909  0.1679 -0.6501  0.1180
  121SOL    HW1  362   1.759   1.085   0.883 -1.5496  1.2336 -0.0369
  121SOL    HW2  363   1.924   1.119   0.867 -1.0502 -0.4902  0.9711
  122SOL     OW  364   2.908   2.752   3.168  0.4159 -0.2686  0.1477
  122SOL    HW1  365   2.851   2.827   3.123 -1.0400 -0.9781 -2.3004
  122SOL    HW2  366   2.842   2.680   3.202  3.5685 -1.9606  0.8174
  123SOL     OW  367   3.547   0.502   0.541  0.1757  0.3410  0.0074
  123SOL    HW1  368   3.521   0.515   0.640 -2.1992 -0.0948 -1.9493
  123SOL    HW2  369   3.532   0.405   0.507  0.0462  1.4811  1.6536
  124SOL     OW  370   1.908   1.480   0.190  0.2418 -0.3096 -0.3339
  124SOL    HW1  371   1.948   1.475   0.286 -2.1097 -0.0010  2.7914
  124SOL    HW2  372   1.970   1.538   0.131  0.9191 -0.7397  0.0179
  125SOL     OW  373   3.610   0.947   2.713  0.0390 -0.6834  0.0028
  125SOL    HW1  374   3.671   0.978   2.791 -1.3985 -2.5113 -1.4746
  125SOL    HW2  375   3.667   0.899   2.641  1.6775  2.2486  0.6644
  126SOL     OW  376   3.268   3.323   0.203  0.3308  0.0260  0.4951
  126SOL    HW1  377   3.262   3.284   0.108 -0.1947  1.0759 -1.1496
  126SOL    HW2  378   3.265   3.247   0.273  0.5111  0.4715  0.7390
  127SOL     OW  379   3.263   2.155   3.616  0.4811 -0.1479  0.1519
  127SOL    HW1  380   3.166   2.184   3.638 -1.2562  1.7712  0.3885
  127SOL    HW2  381   3.274   2.053   3.630 -1.8236  0.2971  0.3852
  128SOL     OW  382   1.057   1.213   0.779  0.0306  0.0437 -0.6532
  128SOL    HW1  383   0.961   1.234   0.749 -1.8142 -1.8659  0.5369
  128SOL    HW2  384   1.066   1.218   0.882 -1.6708  0.2873 -0.7774
  129SOL     OW  385   2.481   2.347   1.123 -0.0203  0.3695 -0.5461
  129SOL    HW1  386   2.536   2.308   1.201 -0.9775 -0.3158  0.5476
  129SOL    HW2  387   2.437   2.437   1.150  0.5746 -2.8896  1.6817
  130SOL     OW  388   2.218   1.062   0.240  0.4404  0.1568  0.1056
  130SOL    HW1  389   2.309   1.020   0.216 -0.6714 -1.2520 -1.5450
  130SOL    HW2  390   2.137   1.011   0.202 -3.2366 -2.6428 -2.0853
  131SOL     OW  391   0.063   1.976   3.095 -0.1169 -0.4195 -0.2440
  131SOL    HW1  392  -0.033   1.943   3.079 -2.6090 -0.5134  0.7129
  131SOL    HW2  393   0.092   1.975   3.194  0.9765 -1.2789 -0.7944
  132SOL     OW  394   1.499   1.373   2.125 -0.2384 -0.6317  0.7804
  132SOL    HW1  395   1.489   1.283   2.075 -3.2827  0.7090  3.1247
  132SOL    HW2  396   1.409   1.425   2.119  1.3186 -1.3562 -1.0976
  133SOL     OW  397   0.476   1.288   1.001 -0.4007 -0.6716  0.2288
  133SOL    HW1  398   0.578   1.279   1.007 -0.9336  1.6340 -0.1104
  133SOL    HW2  399   0.443   1.373   1.049  1.0236  0.4098  1.9056
  134SOL     OW  400   0.055   1.620   0.156  0.0272 -0.0290 -0.2182
  134SOL    HW1  401   0.057   1.521   0.131  1.3086 -0.5144  2.6990
  134SOL    HW2  402   0.013   1.675   0.080 -0.5530 -0.5346 -0.2462
  135SOL     OW  403   1.985   0.930   0.118 -0.5038  0.1923  0.1537
  135SOL    HW1  404   1.942   1.023   0.111 -1.3698  1.8272  2.0467
  135SOL    HW2  405   1.948   0.865   0.048 -0.9070 -1.8048  1.0614
  136SOL     OW  406   2.537   2.435   1.689 -0.4661 -0.6231 -0.1397
  136SOL    HW1  407   2.567   2.418   1.786  0.1160 -0.4195 -1.4507
  136SOL    HW2  408   2.471   2.515   1.682 -0.2225  0.1130  1.1899
  137SOL     OW  409   2.699   2.903   0.822 -0.1638 -0.0286  0.5142
  137SOL    HW1  410   2.680   2.983   0.884  0.5457  4.2302 -0.7730
  137SOL    HW2  411   2.736   2.934   0.731 -0.5571 -0.5146 -0.2067
  138SOL     OW  412   2.826   0.362   2.106  0.0655  0.2803 -0.3643
  138SOL    HW1  413   2.852   0.263   2.097  0.2557 -1.2934 -1.5332
  138SOL    HW2  414   2.771   0.394   2.025  2.3276  3.2007  0.6615
  139SOL     OW  415   3.267   3.108   3.191  0.3876 -0.3065  0.2114
  139SOL    HW1  416   3.195   3.061   3.249 -2.0412  5.7148 -2.0871
  139SOL    HW2  417   3.243   3.097   3.090  0.9251  0.9589 -0.3090
  140SOL     OW  418   1.739   2.215   3.083  0.5222  0.7900  0.0986
  140SOL    HW1  419   1.743   2.316   3.062  0.5557 -2.3616 -0.4381
  140SOL    HW2  420   1.795   2.160   3.016  1.5541 -0.7244 -0.4990
  141SOL     OW  421   1.713   1.667   2.930  0.4017 -0.3854  0.7511
  141SOL    HW1  422   1.671   1.585   2.885  4.2754 -0.4283 -0.9837
  141SOL    HW2  423   1.754   1.638   3.021 -0.3956  2.3004  0.1881
  142SOL     OW  424   2.433   2.795   2.406 -0.7813  0.2430 -0.1487
  142SOL    HW1  425   2.431   2.700   2.364 -0.6911  3.9351 -1.3525
  142SOL    HW2  426   2.523   2.844   2.394 -1.2253 -1.4985  0.0125
  143SOL     OW  427   1.187   2.989   0.579  0.1646  0.1537  0.3812
  143SOL    HW1  428   1.246   2.963   0.659  1.3623  0.5906  1.1772
  143SOL    HW2  429   1.149   2.911   0.525 -0.7741  1.7094  1.1350
  144SOL     OW  430   0.984   3.161   0.659  0.6277 -0.6777 -0.4596
  144SOL    HW1  431   0.971   3.235   0.589  3.4016 -0.5285 -1.0347
  144SOL    HW2  432   1.066   3.104   0.634 -1.8292 -0.0000  0.0339
  145SOL     OW  433   2.128   2.623   3.589  0.4429  0.4186  0.2484
  145SOL    HW1  434   2.026   2.611   3.576 -2.4825  0.0987  1.6188
  145SOL    HW2  435   2.159   2.723   3.584  1.4458  1.1968 -1.1880
  146SOL     OW  436   2.072   2.785   0.358  0.5379  0.9073  0.2568
  146SOL    HW1  437   2.089   2.855   0.284 -1.5855  1.0847 -2.1856
  146SOL    HW2  438   2.094   2.688   0.332 -0.4602  0.4007 -0.4167
  147SOL     OW  439   0.436   2.003   2.296  0.1012  0.4861  0.1623
  147SOL    HW1  440   0.427   1.970   2.199 -0.7995 -0.9392  1.0557
  147SOL    HW2  441   0.474   2.099   2.298  0.2370  1.6364 -0.8238
  148SOL     OW  442   1.422   0.030   0.261  0.5186  0.8102 -0.0374
  148SOL    HW1  443   1.464   0.119   0.228  1.2531  2.8545  0.4142
  148SOL    HW2  444   1.343  -0.003   0.203 -2.1866 -2.1500 -0.6485
  149SOL     OW  445   0.554   2.455   0.219 -0.5385 -0.2471  0.2390
  149SOL    HW1  446   0.638   2.478   0.165  0.5111 -1.7742  0.1085
  149SOL    HW2  447   0.469   2.487   0.171 -1.0316 -2.1440 -0.1791
  150SOL     OW  448   0.456   3.002   1.455 -0.4585 -0.6027  0.0045
  150SOL    HW1  449   0.559   2.987   1.458 -1.7127  0.8462 -2.3501
  150SOL    HW2  450   0.437   3.069   1.379  4.2220 -0.2356  0.3244
  151SOL     OW  451   0.420   1.954   3.450 -0.0952 -0.3811  0.5292
  151SOL    HW1  452   0.468   1.877   3.402 -1.0394  1.0808 -0.9351
  151SOL    HW2  453   0.433   1.947   3.552 -1.5492  0.2583  2.1320
  152SOL     OW  454   3.542   2.275   1.089  0.2602  0.2785 -0.0496
  152SOL    HW1  455   3.578   2.220   1.009 -2.2591  1.1749 -1.4592
  152SOL    HW2  456   3.439   2.269   1.099  2.7403  0.5066  0.0116
  153SOL     OW  457   1.830   2.731   0.781 -0.3424 -0.4265  0.0879
  153SOL    HW1  458   1.924   2.689   0.775  0.2943  2.7090 -0.0153
  153SOL    HW2  459   1.763   2.658   0.809  1.7621 -2.9517 -0.3149
  154SOL     OW  460   0.990   3.564   1.714  0.1949 -0.0328 -0.4154
  154SOL    HW1  461   1.021   3.466   1.709  0.7385 -2.1367  1.3504
  154SOL    HW2  462   0.888   3.568   1.720  1.2873  1.3062  0.5034
  155SOL     OW  463   3.113   2.393   0.519 -0.0405  0.4174 -0.4233
  155SOL    HW1  464   3.190   2.448   0.562  2.4133 -0.7260 -1.2258
  155SOL    HW2  465   3.062   2.451   0.452  1.3114  1.2293 -0.5959
  156SOL     OW  466   2.945   2.374   0.114  0.2770 -0.2586  0.3654
  156SOL    HW1  467   2.902   2.422   0.033 -1.8316  0.0114  0.5479
  156SOL    HW2  468   2.948   2.440   0.194  0.1962  1.8559  0.5195
  157SOL     OW  469   0.618   0.188   2.276 -0.2372  0.0480  0.0982
  157SOL    HW1  470   0.656   0.277   2.314  0.7404 -0.7709  0.6601
  157SOL    HW2  471   0.574   0.135   2.354 -0.4901 -0.4897  4.3396
  158SOL     OW  472   1.168   0.713   1.343 -0.1470  0.6363 -0.3188
  158SOL    HW1  473   1.234   0.655   1.290 -2.1138  0.6424 -1.8398
  158SOL    HW2  474   1.203   0.713   1.440  0.4787 -2.3045  0.9129
  159SOL     OW  475   2.291   1.192   3.454  0.5041  0.3162  0.5523
  159SOL    HW1  476   2.236   1.130   3.392 -1.5072 -0.8295  1.9071
  159SOL    HW2  477   2.230   1.217   3.535 -1.6132 -2.8833  1.8451
  160SOL     OW  478   1.547   2.054   0.634  0.3391  0.0230  0.0530
  160SOL    HW1  479   1.617   1.986   0.602  0.9096 -0.5244 -0.4598
  160SOL    HW2  480   1.454   2.026   0.599 -0.4980  0.7625 -1.6054
  161SOL     OW  481   3.280   2.065   3.230 -0.4417 -0.1945  0.3971
  161SOL    HW1  482   3.279   2.144   3.164  3.4816 -1.8962  1.8517
  161SOL    HW2  483   3.287   2.101   3.327 -0.8296  1.8277 -0.3377
  162SOL     OW  484   3.599   2.658   1.317  0.0196 -0.0959 -0.3079
  162SOL    HW1  485   3.674   2.716   1.361 -2.0597 -0.3205  1.0207
  162SOL    HW2  486   3.630   2.559   1.319 -2.3986  0.1074 -0.3858
  163SOL     OW  487   0.681   0.977   3.083 -0.4049  0.8943 -0.1677
  163SOL    HW1  488   0.770   1.024   3.109 -1.4670  0.7907  3.0271
  163SOL    HW2  489   0.669   0.893   3.142 -0.5910  0.2269 -1.1903
  164SOL     OW  490   0.443   3.087   3.215 -0.0999  0.9544  0.0721
  164SOL    HW1  491   0.383   3.056   3.292  0.0515 -0.3141  0.4644
  164SOL    HW2  492   0.426   3.186   3.190  1.3417  2.2255 -3.2037
  165SOL     OW  493   2.764   1.191   1.726  0.0981 -0.5113  0.2105
  165SOL    HW1  494   2.778   1.143   1.816  2.3797  1.9698  2.8705
  165SOL    HW2  495   2.820   1.278   1.722  1.7816 -1.1684 -0.1727
  166SOL     OW  496   2.486   2.173   1.579  0.3771  0.2349  0.1071
  166SOL    HW1  497   2.502   2.263   1.624  0.0241 -2.4464  0.8014
  166SOL    HW2  498   2.525   2.096   1.634  0.5318 -1.3818 -1.5216
  167SOL     OW  499   0.091   0.922   3.584  0.1166 -0.7430  0.1726
  167SOL    HW1  500   0.043   0.967   3.664 -0.9067 -1.1288  1.5970
  167SOL    HW2  501   0.188   0.956   3.582  1.3669  3.2902  0.2291
  168SOL     OW  502   2.588   0.511   3.120 -0.2037 -0.1730 -0.5419
  168SOL    HW1  503   2.500   0.508   3.069  3.4548  1.4517  1.5831
  168SOL    HW2  504   2.604   0.423   3.171  1.2042 -0.0337  0.6762
  169SOL     OW  505   0.633   1.449   0.020 -0.2980 -0.0151 -0.5849
  169SOL    HW1  506   0.606   1.504   0.103  0.3096  3.4185 -0.1752
  169SOL    HW2  507   0.567   1.454  -0.057 -0.1209  1.4198 -2.2355
  170SOL     OW  508   1.446   1.074   1.752 -0.0762  0.1377  0.0232
  170SOL    HW1  509   1.483   0.991   1.705 -0.8601  1.7881 -0.9973
  170SOL    HW2  510   1.514   1.151   1.746  1.1426 -2.8884 -2.3724
  171SOL     OW  511   1.901   3.192   1.240  0.0769  0.2669  0.0450
  171SOL    HW1  512   1.875   3.138   1.324 -0.3817  0.0523  3.7746
  171SOL    HW2  513   1.871   3.153   1.150 -0.1041 -0.6452  1.9130
  172SOL     OW  514   1.189   0.077   2.358  0.2138 -0.0110  0.4676
  172SOL    HW1  515   1.106   0.046   2.305 -1.0514  3.2923 -1.4499
  172SOL    HW2  516   1.265   0.006   2.350  0.6480  1.6138  0.5292
  173SOL     OW  517   0.965   2.982   1.155  0.2305 -0.6699 -0.0437
  173SOL    HW1  518   0.977   3.064   1.093 -0.7990 -1.6316  1.3604
  173SOL    HW2  519   0.867   2.952   1.152 -0.5214  1.4591 -1.0214
  174SOL     OW  520   2.492   0.167   0.306  0.3693  0.0681  0.0585
  174SOL    HW1  521   2.395   0.191   0.334 -2.0733 -0.1021  1.6031
  174SOL    HW2  522   2.498   0.073   0.266  3.4090  2.1102  2.8509
  175SOL     OW  523   1.116   1.630   0.812  0.0579  0.4665  0.1350
  175SOL    HW1  524   1.145   1.729   0.817 -0.5422 -0.2268 -2.4777
  175SOL    HW2  525   1.027   1.616   0.861  1.0474 -1.0335  0.5121
  176SOL     OW  526   1.140   2.152   1.187  0.4213 -0.0803 -0.2627
  176SOL    HW1  527   1.222   2.212   1.214  3.5179 -1.1407 -1.9296
  176SOL    HW2  528   1.056   2.204   1.159  0.0214  1.1968  3.6727
  177SOL     OW  529   1.524   1.128   1.329 -0.4655 -0.6756 -0.4392
  177SOL    HW1  530   1.537   1.025   1.317  0.6557  0.5181  2.0123
  177SOL    HW2  531   1.606   1.168   1.377 -1.4100  0.9551  2.0724
  178SOL     OW  532   2.731   1.719   0.776 -0.4138  0.4862  0.0071
  178SOL    HW1  533   2.712   1.820   0.763  1.2143  0.1626  2.2526
  178SOL    HW2  534   2.713   1.669   0.689  0.9188 -0.1843  0.5004
  179SOL     OW  535   1.169   3.324   3.552 -0.4115 -0.5276 -0.3157
  179SOL    HW1  536   1.129   3.276   3.634 -3.5247 -1.6039  0.6263
  179SOL    HW2  537   1.256   3.282   3.518  0.4051  0.3875 -1.2291
  180SOL     OW  538   2.033   1.402   1.929  0.5933  0.2200 -0.0634
  180SOL    HW1  539   1.974   1.483   1.904 -1.3705 -0.7840 -1.7963
  180SOL    HW2  540   2.132   1.432   1.942  1.2362  0.5107 -0.4267
  181SOL     OW  541   0.956   1.134   1.848  0.3627  0.3725  0.2439
  181SOL    HW1  542   0.941   1.034   1.863 -1.0283 -2.3824  0.7790
  181SOL    HW2  543   1.015   1.175   1.923  4.0721 -2.7134  3.0361
  182SOL     OW  544   3.331   1.202   0.035 -0.3486 -0.1958 -0.2248
  182SOL    HW1  545   3.394   1.215  -0.047 -0.2103 -0.4530 -2.2617
  182SOL    HW2  546   3.281   1.284   0.068 -1.2221 -0.1672 -0.7727
  183SOL     OW  547   2.245   0.094   2.566  0.0079  0.1966  0.1734
  183SOL    HW1  548   2.282   0.000   2.555 -0.4006 -1.7384 -0.1798
  183SOL    HW2  549   2.144   0.097   2.550  1.6183  1.1350 -0.8538
  184SOL     OW  550   1.151   0.928   1.082 -0.5214 -0.0403  0.3462
  184SOL    HW1  551   1.108   0.866   1.011  0.8104 -0.0992 -0.7009
  184SOL    HW2  552   1.159   0.879   1.172 -2.2145  0.1738 -0.1886
  185SOL     OW  553   2.418   1.334   0.603 -0.2825 -0.3995  0.0058
  185SOL    HW1  554   2.458   1.312   0.694 -0.2118  1.4744 -0.9810
  185SOL    HW2  555   2.364   1.421   0.606  0.6459 -0.9248 -3.1327
  186SOL     OW  556   0.343   2.613   0.527 -0.1470  0.1231  0.9969
  186SOL    HW1  557   0.361   2.552   0.608  0.4267  2.0258 -0.5364
  186SOL    HW2  558   0.376   2.570   0.437  1.2326  0.6156 -1.9312
  187SOL     OW  559   2.014   1.923   3.199  0.1419  0.0747  0.0112
  187SOL    HW1  560   2.007   1.984   3.114 -0.3956 -2.6169 -1.2400
  187SOL    HW2  561   1.992   1.976   3.285  0.5834  2.0856 -0.3584
  188SOL     OW  562   1.585   3.464   1.662  0.2074 -0.2373 -0.5554
  188SOL    HW1  563   1.554   3.561   1.668 -1.7925  1.0844 -1.3009
  188SOL    HW2  564   1.512   3.397   1.686  1.0456  3.1481 -1.8122
  189SOL     OW  565   3.367   1.655   2.871  0.0959 -0.5167  0.3808
  189SOL    HW1  566   3.380   1.744   2.922 -1.1472  1.3857 -0.8897
  189SOL    HW2  567   3.289   1.601   2.913  0.6737 -2.3031 -0.7664
  190SOL     OW  568   1.202   3.162   2.505 -0.1610  0.3515  0.3502
  190SOL    HW1  569   1.201   3.069   2.547 -3.3633  0.7765 -3.3547
  190SOL    HW2  570   1.299   3.200   2.501 -0.5949 -1.6771 -0.7741
  191SOL     OW  571   2.793   1.039   1.461 -0.4724 -0.6025  0.1245
  191SOL    HW1  572   2.694   1.012   1.446 -2.1588  1.4594 -0.7001
  191SOL    HW2  573   2.803   1.095   1.547  1.2521  1.0618  1.7673
  192SOL     OW  574   2.328   0.621   1.276  0.0032  0.2475  0.2556
  192SOL    HW1  575   2.423   0.583   1.262 -2.8349 -0.1490 -0.2001
  192SOL    HW2  576   2.258   0.571   1.217 -1.9939  0.4203 -1.0513
  193SOL     OW  577   1.025   0.060   0.286  0.0718  0.0394  0.7417
  193SOL    HW1  578   1.029   0.134   0.215 -2.9337  1.9081 -0.5007
  193SOL    HW2  579   0.981   0.097   0.371 -1.0340  0.7778  1.5792
  194SOL     OW  580   1.985   2.760   1.173  0.0897  0.0113 -0.3253
  194SOL    HW1  581   1.939   2.831   1.113  1.4491  1.0494  1.9478
  194SOL    HW2  582   1.916   2.713   1.234 -2.2577  0.2937  0.5972
  195SOL     OW  583   2.823   1.004   0.864 -0.0432  0.5029  0.2706
  195SOL    HW1  584   2.903   1.045   0.813  0.7393  0.8970  0.8215
  195SOL    HW2  585   2.749   1.074   0.879 -0.4244 -1.5898 -1.0459
  196SOL     OW  586   1.184   2.812   2.091  0.1476  0.5540 -0.6407
  196SOL    HW1  587   1.203   2.776   1.997 -1.6670  0.2129 -1.7987
  196SOL    HW2  588   1.084   2.827   2.116 -0.7141 -1.0434  0.6047
  197SOL     OW  589   3.142   0.342   2.819 -0.2920  0.1768  0.0967
  197SOL    HW1  590   3.084   0.426   2.811 -0.0360 -1.7787 -1.2988
  197SOL    HW2  591   3.079   0.260   2.813  2.0157  0.8859  3.1553
  198SOL     OW  592   2.559   1.773   0.339  0.7144  0.4404  0.0047
  198SOL    HW1  593   2.637   1.795   0.277 -0.2512 -0.3244 -0.2177
  198SOL    HW2  594   2.487   1.715   0.295 -0.7727 -1.3985  0.2135
  199SOL     OW  595   2.796   0.772   2.054  0.1345  0.2099  0.2476
  199SOL    HW1  596   2.772   0.732   2.148  0.3388  0.8802  0.2848
  199SOL    HW2  597   2.783   0.700   1.981 -0.9265  1.6335  1.2947
  200SOL     OW  598   2.108   3.404   3.502 -0.5090 -0.1083 -0.4230
  200SOL    HW1  599   2.057   3.469   3.565 -0.5028 -1.8400  0.0247
  200SOL    HW2  600   2.209   3.407   3.522 -0.2345  0.0776  0.6501
  201SOL     OW  601   3.143   0.265   1.673 -0.1918 -0.0367  0.9310
  201SOL    HW1  602   3.060   0.219   1.710  2.3428  2.1268  0.8507
  201SOL    HW2  603   3.113   0.355   1.632  2.0866 -0.3676 -1.6628
  202SOL     OW  604   3.215   3.553   0.638  0.1028 -0.2525  0.3928
  202SOL    HW1  605   3.181   3.620   0.708 -1.0684 -1.2480  2.0456
  202SOL    HW2  606   3.317   3.541   0.646 -2.4710  0.3407  2.7031
  203SOL     OW  607   1.747   1.839   0.545 -0.5849  0.3275  0.0445
  203SOL    HW1  608   1.774   1.769   0.616  2.6622 -2.3624  0.1754
  203SOL    HW2  609   1.815   1.918   0.537 -0.5897  2.9093 -1.9276
  204SOL     OW  610   0.162   2.072   2.580 -0.3126 -0.3125 -0.1162
  204SOL    HW1  611   0.140   2.170   2.557 -0.2096  1.5593  1.5863
  204SOL    HW2  612   0.225   2.030   2.508 -0.8001 -1.3451 -0.6069
  205SOL     OW  613   0.572   0.784   1.014  0.7168  0.1468 -0.3434
  205SOL    HW1  614   0.655   0.722   1.022  1.6306  0.6770 -0.7930
  205SOL    HW2  615   0.492   0.739   0.966 -2.4421  3.0262  0.2328
  206SOL     OW  616   0.434   1.171   3.065  0.6176  0.0388  1.2922
  206SOL    HW1  617   0.454   1.256   3.010 -0.8349  0.9380 -1.0446
  206SOL    HW2  618   0.517   1.109   3.075  0.1355 -0.4495 -1.1787
  207SOL     OW  619   1.602   2.725   1.790 -0.3752 -0.3066  0.4271
  207SOL    HW1  620   1.639   2.739   1.885 -0.3695  1.5755 -0.7785
  207SOL    HW2  621   1.556   2.632   1.782 -0.9886 -0.6636 -1.9666
  208SOL     OW  622   2.690   0.366   1.196 -0.1364  0.2410  1.1737
  208SOL    HW1  623   2.751   0.299   1.245  0.1871 -0.2916 -0.2749
  208SOL    HW2  624   2.634   0.325   1.120 -0.5260 -1.4797 -1.3677
  209SOL     OW  625   2.256   1.169   0.993 -0.0242 -0.6657 -0.2094
  209SOL    HW1  626   2.245   1.102   1.071  1.4340 -0.7725 -2.9035
  209SOL    HW2  627   2.192   1.140   0.916 -0.2255 -1.8917 -2.8498
  210SOL     OW  628   2.514   1.272   0.876  0.2067  0.1401  0.4690
  210SOL    HW1  629   2.434   1.239   0.933 -0.9452  2.3417  2.4757
  210SOL    HW2  630   2.565   1.346   0.927  0.0595 -3.2527 -0.9908
  211SOL     OW  631   1.054   3.360   3.274  0.4222 -0.1524  0.0620
  211SOL    HW1  632   0.978   3.294   3.249 -0.4612  1.1225 -1.7646
  211SOL    HW2  633   1.082   3.355   3.372 -0.3303  2.2934 -2.7101
  212SOL     OW  634   2.178   2.048   0.738 -0.6747 -0.1916  0.6203
  212SOL    HW1  635   2.222   2.103   0.812  1.8443  1.6146  0.0181
  212SOL    HW2  636   2.246   2.030   0.663 -1.8611  3.2236 -2.3747
  213SOL     OW  637   2.685   3.349   0.268 -0.0431  0.0760 -0.0624
  213SOL    HW1  638   2.660   3.251   0.289 -2.7395  0.1154 -0.1175
  213SOL    HW2  639   2.734   3.362   0.177 -1.9028  0.7628 -2.9969
  214SOL     OW  640   1.465   2.797   2.729 -0.1852  0.1444 -0.0630
  214SOL    HW1  641   1.562   2.832   2.712  1.0592 -0.8206  3.0081
  214SOL    HW2  642   1.463   2.703   2.683 -1.7500 -0.3935 -0.2013
  215SOL     OW  643   0.397   1.531   1.151 -0.2095 -0.6465  0.0902
  215SOL    HW1  644   0.303   1.539   1.191 -0.5985 -1.2894  1.4555
  215SOL    HW2  645   0.427   1.621   1.111 -0.6842 -2.3861 -4.1801
  216SOL     OW  646   0.127   0.104   2.830 -0.1878 -0.5641  0.3009
  216SOL    HW1  647   0.182   0.168   2.769 -1.0605  1.1552  0.8152
  216SOL    HW2  648   0.064   0.042   2.775 -2.3716 -2.9628  2.1892
  217SOL     OW  649   3.417   1.765   1.725  0.5942  0.8039  0.4871
  217SOL    HW1  650   3.513   1.750   1.692 -0.4139  0.4862 -0.9074
  217SOL    HW2  651   3.393   1.700   1.802  1.2111 -0.1626  1.0422
  218SOL     OW  652   0.810   2.813   2.021 -0.1509 -0.3676 -0.4028
  218SOL    HW1  653   0.713   2.845   2.025  1.3662  1.9857 -2.0657
  218SOL    HW2  654   0.829   2.736   2.086  1.5660  1.8071  0.3835
  219SOL     OW  655   2.523   2.261   3.429 -0.8816 -0.1130  0.0097
  219SOL    HW1  656   2.546   2.257   3.328  0.3272  0.5649 -1.8567
  219SOL    HW2  657   2.541   2.170   3.477  4.3770 -2.4143  0.0651
  220SOL     OW  658   2.146   0.255   0.069 -0.7294 -0.2225 -0.1083
  220SOL    HW1  659   2.218   0.233  -0.002 -0.0663  2.0341  1.1835
  220SOL    HW2  660   2.109   0.348   0.048  0.1280  0.1412  1.8646
  221SOL     OW  661   3.355   1.248   0.365 -0.1441 -0.1446 -0.7839
  221SOL    HW1  662   3.330   1.154   0.332  1.2137 -1.5672 -2.3203
  221SOL    HW2  663   3.320   1.317   0.298 -1.1042  0.3392  1.2644
  222SOL     OW  664   1.855   1.647   0.763 -0.4707 -0.0526 -0.1257
  222SOL    HW1  665   1.832   1.575   0.833  0.7911 -0.9242  0.6628
  222SOL    HW2  666   1.924   1.713   0.803  1.2362  1.3151  1.7407
  223SOL     OW  667   0.944   0.307   3.463 -0.3757 -0.3073 -0.1319
  223SOL    HW1  668   1.018   0.266   3.404 -4.8941  0.3516  1.5409
  223SOL    HW2  669   0.931   0.405   3.435 -0.5708 -1.3801 -0.3397
  224SOL     OW  670   1.174   3.387   1.340  0.3690 -0.2530  0.4946
  224SOL    HW1  671   1.167   3.487   1.363 -0.0040  0.8939 -0.7017
  224SOL    HW2  672   1.094   3.335   1.381 -0.2079  1.6077  0.5795
  225SOL     OW  673   1.071   0.170   2.615 -0.0628 -0.1859 -0.0531
  225SOL    HW1  674   1.113   0.127   2.531 -0.4516 -1.2616 -0.1879
  225SOL    HW2  675   1.010   0.099   2.661  0.8798 -1.6817  2.4196
  226SOL     OW  676   1.484   1.851   0.944 -0.4282 -0.5314  0.3326
  226SOL    HW1  677   1.559   1.922   0.948 -1.4789  2.1883  0.0879
  226SOL    HW2  678   1.531   1.759   0.931  0.1913 -0.2163 -1.4318
  227SOL     OW  679   0.188   2.676   1.733  0.6059 -0.2884  0.3111
  227SOL    HW1  680   0.207   2.693   1.631  0.1095  0.7117 -0.5079
  227SOL    HW2  681   0.221   2.583   1.761 -0.6698  0.7479  1.4680
  228SOL     OW  682   0.097   2.209   0.402  0.2327 -0.2649  0.1983
  228SOL    HW1  683   0.068   2.301   0.366 -1.3168  0.2443 -0.4753
  228SOL    HW2  684   0.164   2.218   0.478 -0.7428 -2.1307 -0.4079
  229SOL     OW  685   2.860   0.277   3.491  0.0792  0.5131  0.6588
  229SOL    HW1  686   2.926   0.305   3.417  0.1229 -1.2082  4.4388
  229SOL    HW2  687   2.896   0.198   3.546 -1.0442  0.9633 -1.0504
  230SOL     OW  688   3.064   1.018   0.449 -0.3884 -0.4916 -0.1141
  230SOL    HW1  689   3.136   1.008   0.375  0.1136  0.0700 -0.7798
  230SOL    HW2  690   2.984   1.069   0.407  0.8468 -0.1113  1.8680
  231SOL     OW  691   1.930   2.084   0.550  0.5751  0.8379  0.5865
  231SOL    HW1  692   2.010   2.071   0.614  1.3939  0.0933  1.3055
  231SOL    HW2  693   1.929   2.181   0.513 -1.1532 -0.4482 -1.8460
  232SOL     OW  694   2.102   2.369   1.204  0.4375  0.2704  0.0660
  232SOL    HW1  695   2.155   2.445   1.163  0.6936 -0.9461  0.6039
  232SOL    HW2  696   2.150   2.279   1.191  0.4866 -0.7813  0.5746
  233SOL     OW  697   0.687   3.377   2.188  0.4740 -0.0245  0.6393
  233SOL    HW1  698   0.741   3.464   2.198 -0.6802  0.6387  2.6610
  233SOL    HW2  699   0.674   3.364   2.086  1.1987  0.0526  0.2612
  234SOL     OW  700   0.801   0.420   2.865  0.2157 -0.2641 -0.3667
  234SOL    HW1  701   0.855   0.424   2.777 -0.8358 -1.3946 -0.7752
  234SOL    HW2  702   0.857   0.465   2.940 -1.6395  0.4553 -0.8358
  235SOL     OW  703   3.077   1.252   2.280 -0.4520  0.2141  0.1396
  235SOL    HW1  704   3.167   1.209   2.307  1.0495 -2.2396  3.4295
  235SOL    HW2  705   3.020   1.188   2.222 -1.2444 -1.2586  1.6196
  236SOL     OW  706   1.922   3.256   1.629 -1.0619 -0.8409  1.0509
  236SOL    HW1  707   1.993   3.291   1.563  0.7793 -4.5660  0.9183
  236SOL    HW2  708   1.854   3.331   1.651 -0.4827  1.0894  0.6567
  237SOL     OW  709   0.504   1.989   3.009  0.7515  0.1368  0.2002
  237SOL    HW1  710   0.578   2.033   2.954  1.2405  0.6805 -2.3068
  237SOL    HW2  711   0.428   1.949   2.951 -0.8092  1.6699  1.1152
  238SOL     OW  712   1.397   1.112   2.543  0.4244  0.3055  0.3232
  238SOL    HW1  713   1.458   1.164   2.479 -0.0093 -0.9412 -1.8548
  238SOL    HW2  714   1.335   1.047   2.492 -1.9072 -0.5500  0.1688
  239SOL     OW  715   0.990   1.987   2.921 -0.3309 -0.2174  0.8060
  239SOL    HW1  716   0.982   2.020   3.018 -0.0149  0.8887 -2.2269
  239SOL    HW2  717   1.020   2.061   2.856  0.8786  2.5340  0.2538
  240SOL     OW  718   2.804   3.037   0.555  0.0008 -0.2114 -0.1265
  240SOL    HW1  719   2.724   3.063   0.495 -1.3804  0.1943 -2.3530
  240SOL    HW2  720   2.860   3.121   0.581  2.3979  1.0278  0.6483
  241SOL     OW  721   0.382   1.218   0.161  0.1630 -0.2443 -0.1441
  241SOL    HW1  722   0.382   1.184   0.259  0.4673 -1.3503 -2.0102
  241SOL    HW2  723   0.454   1.291   0.146 -2.5713 -0.4118 -1.4507
  242SOL     OW  724   1.800   3.430   1.962 -0.2984 -0.3097  0.0883
  242SOL    HW1  725   1.729   3.449   1.888  3.1415  2.4477  1.0036
  242SOL    HW2  726   1.826   3.331   1.964  1.5847  1.0263 -0.0175
  243SOL     OW  727   1.426   3.041   2.132  0.0872  0.0998  0.0301
  243SOL    HW1  728   1.378   3.131   2.119  0.6819  2.3637 -0.0442
  243SOL    HW2  729   1.357   2.962   2.128  0.0423 -1.8630  2.6178
  244SOL     OW  730   2.744   0.671   2.942 -0.5511  0.2812 -0.2294
  244SOL    HW1  731   2.715   0.771   2.944  0.3864  0.1215 -0.1384
  244SOL    HW2  732   2.696   0.613   3.011  0.2822  0.3332 -1.3634
  245SOL     OW  733   1.791   2.645   1.356  0.0496 -0.4973 -0.9302
  245SOL    HW1  734   1.812   2.665   1.454  0.5795 -2.0461  3.0527
  245SOL    HW2  735   1.736   2.558   1.350  3.5094 -2.2304 -0.5503
  246SOL     OW  736   1.546   0.309   0.028  0.1132  0.3974  0.4010
  246SOL    HW1  737   1.614   0.337   0.099 -0.0864  0.7595 -1.8674
  246SOL    HW2  738   1.591   0.308  -0.063  0.1547  1.1178  0.1238
  247SOL     OW  739   2.008   0.408   2.251 -0.3169 -0.0740 -0.4134
  247SOL    HW1  740   2.083   0.411   2.179 -0.6123 -2.9924  1.2574
  247SOL    HW2  741   2.010   0.327   2.316  2.4594  0.9865 -0.2452
  248SOL     OW  742   0.015   2.818   1.904 -0.1173 -0.0041 -0.5313
  248SOL    HW1  743   0.057   2.913   1.909 -0.2460 -2.4747 -2.3709
  248SOL    HW2  744   0.065   2.753   1.842 -0.5573 -0.4334  0.5361
  249SOL     OW  745   0.645   0.286   0.445  0.3636 -0.0442 -0.4321
  249SOL    HW1  746   0.545   0.304   0.456 -2.6841  1.4491 -1.7714
  249SOL    HW2  747   0.657   0.193   0.404 -0.9210 -2.5494 -1.9572
  250SOL     OW  748   2.819   0.208   2.607 -0.1275  0.0179  0.0940
  250SOL    HW1  749   2.742   0.243   2.664  1.9211 -0.2850  1.0288
  250SOL    HW2  750   2.852   0.275   2.537 -1.4555  0.1726 -0.2737
  251SOL     OW  751   1.575   0.795   3.627 -0.1504  0.6531  0.8465
  251SOL    HW1  752   1.563   0.743   3.716  1.0701  4.1421 -0.9973
  251SOL    HW2  753   1.500   0.779   3.559  1.1354 -2.9395 -0.7933
  252SOL     OW  754   1.849   2.921   2.653  0.3886 -0.5153  0.3131
  252SOL    HW1  755   1.936   2.949   2.704  1.2020 -0.2626  1.5309
  252SOL    HW2  756   1.822   2.992   2.582 -2.8906  1.4472  0.5435
  253SOL     OW  757   3.280   3.095   0.439 -0.1155 -0.4613 -0.4979
  253SOL    HW1  758   3.217   3.140   0.506  1.0168 -2.0109 -3.5566
  253SOL    HW2  759   3.371   3.074   0.482  1.1426 -0.3329  1.2266
  254SOL     OW  760   2.494   1.171   1.659 -0.1017 -0.0265 -0.3048
  254SOL    HW1  761   2.455   1.261   1.629 -0.7116  2.2433 -0.0650
  254SOL    HW2  762   2.593   1.185   1.683 -0.9716 -3.0247  2.0741
  255SOL     OW  763   1.053   3.286   1.718 -0.2944 -0.4406  0.3602
  255SOL    HW1  764   1.001   3.274   1.630 -0.2666  1.5253  0.4958
  255SOL    HW2  765   1.010   3.224   1.787 -1.3896 -0.4651 -0.1153
  256SOL     OW  766   2.778   1.953   1.990  0.7305  0.0725 -0.4271
  256SOL    HW1  767   2.723   1.943   1.903  2.3284  1.5065  2.1960
  256SOL    HW2  768   2.868   2.001   1.976 -1.8874 -0.0972  3.9198
  257SOL     OW  769   0.534   2.842   3.066 -1.0280  0.1682  0.3910
  257SOL    HW1  770   0.582   2.783   3.135  2.5387  2.6208  1.2650
  257SOL    HW2  771   0.491   2.927   3.105  3.3011  0.7214  1.9653
  258SOL     OW  772   0.691   2.917   1.172 -0.5080 -0.0417  0.0738
  258SOL    HW1  773   0.623   2.991   1.144  0.3769 -1.1055  1.0732
  258SOL    HW2  774   0.648   2.821   1.167 -0.5230 -0.0909  1.8441
  259SOL     OW  775   1.708   0.515   3.155  0.7172 -0.3038  0.3564
  259SOL    HW1  776   1.806   0.513   3.183  0.1343 -0.0630  0.0067
  259SOL    HW2  777   1.682   0.607   3.118 -0.6254  1.4550  0.1964
  260SOL     OW  778   0.373   0.406   1.540 -0.0296  0.3129  0.1338
  260SOL    HW1  779   0.470   0.443   1.551 -1.4522  0.2310 -2.3717
  260SOL    HW2  780   0.358   0.368   1.443  1.9333  1.4543  0.5274
  261SOL     OW  781   1.457   0.046   2.782 -0.0440 -0.1575 -0.1695
  261SOL    HW1  782   1.421  -0.051   2.794 -0.0396 -0.1548 -1.2235
  261SOL    HW2  783   1.379   0.114   2.784  0.2495  4.5741 -0.4330
  262SOL     OW  784   1.407   3.470   2.306 -0.2326 -0.1364 -0.1050
  262SOL    HW1  785   1.428   3.405   2.384  1.4300  3.5090 -2.3340
  262SOL    HW2  786   1.363   3.423   2.226 -0.3256  2.5252 -1.6087
  263SOL     OW  787   0.775   2.522   0.053  0.0181  0.0202 -0.3432
  263SOL    HW1  788   0.850   2.591   0.032 -0.4332 -1.5799 -0.1576
  263SOL    HW2  789   0.789   2.432   0.005 -0.4514 -3.5574  4.0877
  264SOL     OW  790   1.685   2.094   1.199  0.1719  0.0251  0.0023
  264SOL    HW1  791   1.772   2.045   1.229 -1.4201  0.9812  1.9899
  264SOL    HW2  792   1.677   2.093   1.098  2.5449  2.0701 -1.1122
  265SOL     OW  793   1.079   2.760   0.435 -0.0813 -0.3548  0.4431
  265SOL    HW1  794   1.156   2.701   0.397  0.5917 -0.8770  2.3032
  265SOL    HW2  795   1.006   2.698   0.475  1.5134 -1.1328 -0.4740
  266SOL     OW  796   3.228   1.043   1.209 -0.1083 -0.1323 -0.2882
  266SOL    HW1  797   3.176   0.979   1.149 -2.8716 -2.5771  1.1319
  266SOL    HW2  798   3.282   0.996   1.283  1.7029  0.2220 -0.9383
  267SOL     OW  799   0.293   1.689   0.328  0.3114 -0.2619  0.6374
  267SOL    HW1  800   0.256   1.704   0.423 -2.4702  0.3387 -1.1793
  267SOL    HW2  801   0.215   1.671   0.263  2.0087  0.3827  1.8119
  268SOL     OW  802   1.552   0.650   0.268  0.1511 -0.3467 -0.2611
  268SOL    HW1  803   1.450   0.643   0.285 -1.1079 -3.4541 -0.2101
  268SOL    HW2  804   1.590   0.713   0.340 -0.0961  1.5688 -0.5146
  269SOL     OW  805   3.033   0.814   2.613  0.4688  0.3330  0.6487
  269SOL    HW1  806   3.044   0.886   2.685 -0.3777 -0.3010 -3.0013
  269SOL    HW2  807   3.110   0.829   2.545  1.0906 -0.4346  0.8504
  270SOL     OW  808   3.088   1.373   0.865 -0.5036 -0.5630  0.0289
  270SOL    HW1  809   3.087   1.449   0.793  1.9850  1.9698 -2.9823
  270SOL    HW2  810   3.069   1.283   0.816 -1.9208 -1.4423 -2.4645
  271SOL     OW  811   0.230   1.385   2.651  0.5824 -0.0453 -0.0388
  271SOL    HW1  812   0.288   1.349   2.575  1.1597  1.4003  0.2953
  271SOL    HW2  813   0.201   1.481   2.627 -0.4599  0.3690  1.7584
  272SOL     OW  814   2.963   2.673   2.126  0.0484  0.0294 -0.3437
  272SOL    HW1  815   2.907   2.701   2.208  0.6958 -1.6581 -2.2402
  272SOL    HW2  816   3.046   2.620   2.158 -0.5435 -0.7936 -1.3912
  273SOL     OW  817   0.256   2.971   3.434  0.0623 -0.8119  0.2789
  273SOL    HW1  818   0.319   2.893   3.457 -0.3060 -1.0791  0.5979
  273SOL    HW2  819   0.175   2.943   3.378 -1.1942  1.6878 -0.0410
  274SOL     OW  820   0.966   2.620   0.871  0.2261  0.0358 -0.4881
  274SOL    HW1  821   0.983   2.659   0.965  1.0741  2.6411  0.4247
  274SOL    HW2  822   1.052   2.573   0.834  0.0457  1.4643  0.1627
  275SOL     OW  823   1.713   2.509   2.933  0.0727 -0.1355 -0.6751
  275SOL    HW1  824   1.749   2.551   2.846 -2.0089 -3.2852 -1.0911
  275SOL    HW2  825   1.610   2.493   2.930  0.8359 -0.8395 -0.7403
  276SOL     OW  826   3.370   2.106   2.413  0.0256 -0.4416  0.8904
  276SOL    HW1  827   3.314   2.050   2.347 -1.7545  0.1159  1.9747
  276SOL    HW2  828   3.311   2.140   2.489  0.9854  0.1870  0.7711
  277SOL     OW  829   2.552   0.231   0.985  0.7457 -0.2551  0.3256
  277SOL    HW1  830   2.625   0.228   0.911 -1.5402  0.8616 -0.3457
  277SOL    HW2  831   2.457   0.243   0.946 -0.8573  2.5348 -0.2666
  278SOL     OW  832   1.677   0.006   2.957 -0.1653 -0.4818 -0.4833
  278SOL    HW1  833   1.597   0.031   2.897 -1.7153  0.3080  0.2899
  278SOL    HW2  834   1.649  -0.004   3.056  1.0689 -1.1684 -3.3341
  279SOL     OW  835   1.377   3.190   1.209  0.4071 -0.2277  0.1302
  279SOL    HW1  836   1.375   3.101   1.261  0.4668 -0.2641 -0.6237
  279SOL    HW2  837   1.313   3.261   1.249  0.5521 -0.9369  0.1362
  280SOL     OW  838   1.454   1.283   0.569 -0.0275  0.3967  0.0228
  280SOL    HW1  839   1.389   1.205   0.590 -3.2154 -0.3321 -0.5624
  280SOL    HW2  840   1.470   1.335   0.657 -0.1922 -0.7211  1.7931
  281SOL     OW  841   2.435   2.021   0.541 -0.0761  0.4161 -0.0393
  281SOL    HW1  842   2.513   2.043   0.605 -1.8786 -4.0661 -0.3134
  281SOL    HW2  843   2.464   1.944   0.477 -0.3705 -1.8615  1.9377
  282SOL     OW  844   3.350   1.686   0.656  0.1093 -0.1447 -0.3250
  282SOL    HW1  845   3.256   1.716   0.626  0.6944 -2.9155 -1.5771
  282SOL    HW2  846   3.423   1.705   0.588 -3.4911 -3.3455 -2.5477
  283SOL     OW  847   2.046   2.983   3.452 -0.7677 -0.1683 -0.2241
  283SOL    HW1  848   1.978   2.920   3.406  0.6827 -0.9059 -1.0939
  283SOL    HW2  849   2.069   3.065   3.393 -1.1706 -0.4971 -0.0522
  284SOL     OW  850   0.496   0.502   2.844  0.4151  0.1328  0.0366
  284SOL    HW1  851   0.594   0.476   2.863  2.6474 -3.4541 -0.4565
  284SOL    HW2  852   0.440   0.500   2.932  0.7315 -0.3843 -0.3683
  285SOL     OW  853   2.363   1.615   0.224  0.4081  0.3566  0.3948
  285SOL    HW1  854   2.336   1.629   0.125  1.6327  2.5897 -1.9457
  285SOL    HW2  855   2.345   1.519   0.254  1.3932 -0.1288  1.3797
  286SOL     OW  856   1.179   2.277   1.960  0.3240  0.1035 -0.5293
  286SOL    HW1  857   1.249   2.207   1.987 -1.7407  3.1411  2.7868
  286SOL    HW2  858   1.207   2.326   1.872 -2.2037  0.6587  0.1959
  287SOL     OW  859   2.082   3.348   1.411 -0.7941 -0.3153  0.9795
  287SOL    HW1  860   2.023   3.303   1.339  0.5021 -0.5083  3.6904
  287SOL    HW2  861   2.116   3.440   1.380  1.4184 -2.9381  0.5312
  288SOL     OW  862   0.648   3.107   2.280 -0.6061 -0.3495  0.1372
  288SOL    HW1  863   0.668   3.205   2.260 -2.9863 -0.3893  4.0681
  288SOL    HW2  864   0.548   3.083   2.265 -4.9546  3.4544  2.3671
  289SOL     OW  865   3.601   2.083   0.867  0.2808 -0.8143 -0.1529
  289SOL    HW1  866   3.558   1.991   0.882 -2.1274  0.8073 -1.1883
  289SOL    HW2  867   3.543   2.142   0.805 -0.6762  1.9772  0.0084
  290SOL     OW  868   0.859   2.567   2.206 -0.5450  0.0266 -1.0401
  290SOL    HW1  869   0.893   2.476   2.170 -0.0067  1.5652 -0.6171
  290SOL    HW2  870   0.861   2.570   2.308 -2.4800 -1.3943 -3.4838
  291SOL     OW  871   2.216   0.236   0.351 -0.7572  0.0759  0.2116
  291SOL    HW1  872   2.174   0.323   0.390  2.0947 -0.3721 -1.3291
  291SOL    HW2  873   2.190   0.230   0.252  2.4774  0.7981  0.6845
  292SOL     OW  874   0.725   0.388   1.835  0.2374 -0.2764 -0.3119
  292SOL    HW1  875   0.645   0.328   1.864 -0.6160  1.3066  1.6071
  292SOL    HW2  876   0.805   0.378   1.899  3.3361 -1.2523  0.9760
  293SOL     OW  877   2.570   1.592   1.313 -0.4566 -0.3596 -0.4891
  293SOL    HW1  878   2.658   1.623   1.358  0.4222  0.4035 -0.0679
  293SOL    HW2  879   2.583   1.560   1.215 -1.6399 -2.7762  1.5764
  294SOL     OW  880   0.470   0.381   2.584  0.1521  0.6046 -0.0312
  294SOL    HW1  881   0.390   0.416   2.532 -2.2577 -0.4293 -0.5297
  294SOL    HW2  882   0.470   0.422   2.678 -1.5515 -1.3117 -0.3345
  295SOL     OW  883   1.194   1.697   0.362 -0.6687 -0.1444  0.3835
  295SOL    HW1  884   1.264   1.625   0.341  1.8400  2.0170  1.8188
  295SOL    HW2  885   1.124   1.653   0.424  0.5557  2.2010 -1.4473
  296SOL     OW  886   2.188   1.287   1.379 -0.0323 -0.8615  0.0980
  296SOL    HW1  887   2.187   1.332   1.285  0.8606  1.9687 -0.6127
  296SOL    HW2  888   2.255   1.336   1.441 -1.0757 -0.7996  0.4087
  297SOL     OW  889   2.129   0.981   2.915 -0.0294  0.2398  0.4977
  297SOL    HW1  890   2.231   0.978   2.904 -0.5700  0.7893 -2.3289
  297SOL    HW2  891   2.092   1.052   2.851 -1.4785  0.4690 -0.6337
  298SOL     OW  892   1.053   0.602   3.055 -0.5313 -0.3468 -0.2235
  298SOL    HW1  893   1.113   0.555   3.123 -2.2889  1.6870  0.9238
  298SOL    HW2  894   1.101   0.651   2.977  0.9927  1.0952 -0.8664
  299SOL     OW  895   1.562   0.420   2.409  0.0360  0.3236  0.0717
  299SOL    HW1  896   1.465   0.406   2.379  0.4151  0.0441 -1.1994
  299SOL    HW2  897   1.569   0.485   2.488  4.2571 -1.0621 -2.3061
  300SOL     OW  898   2.937   0.049   2.153  0.1249 -0.0302 -0.2219
  300SOL    HW1  899   2.921  -0.018   2.077  0.8090 -1.6345 -0.5915
  300SOL    HW2  900   3.032   0.089   2.149 -1.0280  0.8907 -0.4099
  301SOL     OW  901   2.154   0.988   1.978  0.7216  0.8073  0.0086
  301SOL    HW1  902   2.075   1.051   1.962  0.8586  1.5577 -0.0068
  301SOL    HW2  903   2.178   0.988   2.078 -2.5632 -1.2398 -1.7376
  302SOL     OW  904   0.802   3.313   2.915  0.5813 -0.2957 -0.6669
  302SOL    HW1  905   0.729   3.284   2.848 -0.4034 -1.6720  1.7059
  302SOL    HW2  906   0.894   3.317   2.867 -0.2074 -1.0126  0.9493
  303SOL     OW  907   1.937   2.267   1.971  0.5169  0.2588  0.7378
  303SOL    HW1  908   1.996   2.253   1.889  0.5542  2.4712 -0.9077
  303SOL    HW2  909   1.839   2.250   1.949  1.0477 -0.9369  0.4307
  304SOL     OW  910   0.240   3.355   0.814  0.5783  0.5436 -0.7319
  304SOL    HW1  911   0.308   3.285   0.785  0.8840  0.6038  0.3432
  304SOL    HW2  912   0.151   3.310   0.841  0.1122 -2.3609  0.5302
  305SOL     OW  913   1.670   0.820   0.472  0.1412  0.2829 -0.0110
  305SOL    HW1  914   1.680   0.921   0.453  0.6982 -1.4179  1.8728
  305SOL    HW2  915   1.647   0.801   0.570  2.1248 -1.3354 -1.3546
  306SOL     OW  916   0.441   1.935   0.152 -0.3323 -0.5890  1.0624
  306SOL    HW1  917   0.536   1.955   0.190  0.8561 -2.1770 -2.9331
  306SOL    HW2  918   0.390   1.861   0.203  0.6228 -0.0126  1.3076
  307SOL     OW  919   0.665   1.192   2.115 -0.2690  0.1568  0.6808
  307SOL    HW1  920   0.666   1.228   2.017 -0.6882 -0.8770  0.2690
  307SOL    HW2  921   0.633   1.093   2.111 -0.1905 -0.8655 -0.3502
  308SOL     OW  922   0.830   0.201   1.341  0.2604 -0.0146  0.1863
  308SOL    HW1  923   0.776   0.238   1.262 -0.6683 -1.2290  0.4137
  308SOL    HW2  924   0.845   0.274   1.411 -1.2682 -1.1422 -1.0800
  309SOL     OW  925   2.488   0.913   0.115 -0.3489  0.2070  0.4190
  309SOL    HW1  926   2.577   0.866   0.134 -1.3960  1.9777  2.9994
  309SOL    HW2  927   2.508   0.985   0.045 -0.1515  1.8029 -1.8630
  310SOL     OW  928   1.372   1.257   0.098  0.0069 -0.1839  0.3621
  310SOL    HW1  929   1.306   1.287   0.025 -2.0429 -1.0437 -1.3218
  310SOL    HW2  930   1.374   1.330   0.171  1.6294  3.5350  2.5455
  311SOL     OW  931   2.038   2.692   2.986 -0.0695  0.4403 -0.0986
  311SOL    HW1  932   1.961   2.663   2.921  1.6615 -0.5236 -3.1070
  311SOL    HW2  933   2.094   2.766   2.935  1.3410  2.9374 -0.9256
  312SOL     OW  934   2.439   3.539   3.538 -0.6875  0.0476  0.2280
  312SOL    HW1  935   2.410   3.636   3.519  0.8954  2.2210 -0.7977
  312SOL    HW2  936   2.451   3.528   3.639 -0.4972  0.7039 -2.7795
  313SOL     OW  937   0.436   0.479   0.704 -0.2276 -0.1221 -0.5343
  313SOL    HW1  938   0.382   0.535   0.771 -0.3917 -3.0771 -3.3904
  313SOL    HW2  939   0.506   0.535   0.651 -0.8183  0.6334  2.0280
  314SOL     OW  940   3.034   1.553   3.439  0.1779  0.5594 -0.4881
  314SOL    HW1  941   3.059   1.489   3.361 -1.4729 -1.0688  2.1220
  314SOL    HW2  942   3.077   1.645   3.423  0.7118 -0.1553  1.5736
  315SOL     OW  943   2.220   1.001   2.272 -0.1328  0.1732 -0.1368
  315SOL    HW1  944   2.230   0.927   2.343 -1.0575 -1.4789  3.5393
  315SOL    HW2  945   2.190   1.090   2.314  2.3071 -1.0431 -0.2128
  316SOL     OW  946   0.058   1.033   1.039  0.3963  0.2110 -0.2779
  316SOL    HW1  947  -0.023   1.096   1.039  2.2496  0.3553 -1.3483
  316SOL    HW2  948   0.090   1.017   0.942 -0.5566 -3.4136  0.4652
  317SOL     OW  949   0.483   0.345   0.100 -0.4349 -0.4617  0.7109
  317SOL    HW1  950   0.470   0.316   0.199 -1.2042  0.6098  1.1676
  317SOL    HW2  951   0.559   0.291   0.055  0.4156  2.4145  0.9181
  318SOL     OW  952   3.101   3.322   1.596 -0.6067  0.5535 -0.1989
  318SOL    HW1  953   3.095   3.238   1.538 -0.8696  1.1564  1.7822
  318SOL    HW2  954   3.080   3.303   1.696 -2.0203 -0.3965 -0.8422
  319SOL     OW  955   1.452   2.072   0.230  0.4081  0.0489 -0.2664
  319SOL    HW1  956   1.420   2.164   0.198 -2.0176 -0.6745  0.8262
  319SOL    HW2  957   1.403   2.046   0.316  1.1486  2.2473 -0.2381
  320SOL     OW  958   0.764   2.505   1.244 -0.1217 -0.1662  0.7132
  320SOL    HW1  959   0.782   2.525   1.343 -0.0471  1.0897 -0.7601
  320SOL    HW2  960   0.684   2.562   1.213  3.0480 -2.2363 -2.5290
  321SOL     OW  961   2.594   2.713   2.897 -0.1307  1.2168  0.1831
  321SOL    HW1  962   2.510   2.738   2.844  0.0709 -1.7984  2.5819
  321SOL    HW2  963   2.670   2.695   2.830  0.1443  1.0625  0.8243
  322SOL     OW  964   3.455   2.946   2.753 -0.4468 -0.0610 -0.1692
  322SOL    HW1  965   3.510   2.917   2.836 -0.8186  1.3946  0.2995
  322SOL    HW2  966   3.376   3.001   2.792  0.2574  0.7666  0.6242
  323SOL     OW  967   3.239   0.419   1.020  0.4240 -0.1375 -0.1626
  323SOL    HW1  968   3.318   0.464   0.972 -2.0329  0.0269 -0.2974
  323SOL    HW2  969   3.150   0.448   0.976 -0.4425 -1.9066  3.2280
  324SOL     OW  970   2.970   2.091   2.763 -0.1268  0.2998 -0.2197
  324SOL    HW1  971   2.952   2.051   2.669  0.7886 -0.8579 -2.9910
  324SOL    HW2  972   2.956   2.019   2.836 -1.5704 -1.7692  1.1130
  325SOL     OW  973   1.923   0.529   2.747  0.3252 -0.1659 -0.2059
  325SOL    HW1  974   1.936   0.600   2.820 -0.4403 -1.2951 -3.5880
  325SOL    HW2  975   1.958   0.555   2.655 -2.0073  0.8048 -2.8750
  326SOL     OW  976   3.369   2.541   0.682 -0.0048 -0.2093  0.2126
  326SOL    HW1  977   3.333   2.585   0.768 -1.8597  3.7627  0.4733
  326SOL    HW2  978   3.452   2.593   0.650 -3.0625 -1.8113  0.6853
  327SOL     OW  979   3.024   0.003   3.625 -0.4228 -0.1758 -0.2667
  327SOL    HW1  980   2.951  -0.070   3.639  1.0778  0.0361  1.7051
  327SOL    HW2  981   3.098  -0.033   3.565 -0.6932 -1.0073 -1.3036
  328SOL     OW  982   1.034   0.731   0.894 -0.3469  0.6361  0.0075
  328SOL    HW1  983   0.984   0.755   0.808 -1.3808 -1.7358  3.4756
  328SOL    HW2  984   1.123   0.688   0.869  1.6994 -0.1473 -0.8966
  329SOL     OW  985   2.412   0.944   1.836  0.2521  0.0365  0.2736
  329SOL    HW1  986   2.327   0.963   1.892 -1.7861 -1.0224  0.5651
  329SOL    HW2  987   2.439   1.025   1.778 -2.0790  2.3519 -0.2028
  330SOL     OW  988   1.547   0.290   0.711 -1.2383 -0.1176 -0.3954
  330SOL    HW1  989   1.508   0.385   0.726 -0.9437  3.2632 -2.3754
  330SOL    HW2  990   1.638   0.304   0.666 -0.5780 -0.5108 -1.5767
  331SOL     OW  991   0.613   2.307   2.308 -0.4151 -0.3303 -0.5709
  331SOL    HW1  992   0.687   2.319   2.235 -0.0893  0.0194  0.2059
  331SOL    HW2  993   0.570   2.394   2.343  3.1294  1.8188  0.2956
  332SOL     OW  994   2.621   2.334   1.976  0.1704  0.0936  0.7484
  332SOL    HW1  995   2.584   2.260   2.039 -0.2338 -2.3298 -0.1637
  332SOL    HW2  996   2.725   2.328   1.981  1.0671  1.8254 -1.0083
  333SOL     OW  997   3.408   3.593   1.080  0.0488 -0.7800  0.4477
  333SOL    HW1  998   3.334   3.651   1.124  0.5681  0.3144  0.9135
  333SOL    HW2  999   3.450   3.643   1.002  0.2179  0.4801 -0.8560
  334SOL     OW 1000   3.389   1.902   1.223  0.1115  0.3392 -0.0437
  334SOL    HW1 1001   3.484   1.906   1.265 -3.1159  2.1870  0.2335
  334SOL    HW2 1002   3.394   1.858   1.130  0.0544  1.4075  0.9833
  335SOL     OW 1003   0.641   3.532   3.027  0.5660  0.1266 -0.5608
  335SOL    HW1 1004   0.557   3.493   3.068  1.6154  1.0275  1.8641
  335SOL    HW2 1005   0.701   3.457   2.988  1.0778  0.3860  1.0958
  336SOL     OW 1006   0.186   3.169   1.867 -0.4374  0.7348 -0.5228
  336SOL    HW1 1007   0.123   3.207   1.795 -0.6527 -0.2707 -4.0373
  336SOL    HW2 1008   0.162   3.205   1.961 -1.5755 -1.3213 -2.0492
  337SOL     OW 1009   1.030   2.213   2.722  0.4740  0.3382 -0.5158
  337SOL    HW1 1010   1.041   2.295   2.783 -2.5988 -2.1733 -2.8943
  337SOL    HW2 1011   0.948   2.224   2.660  0.9672 -0.1536 -2.3275
  338SOL     OW 1012   1.376   3.395   2.863 -0.1058 -0.2345  0.4662
  338SOL    HW1 1013   1.470   3.358   2.843  0.6243 -3.7114  0.7804
  338SOL    HW2 1014   1.351   3.378   2.962  1.8577 -1.6104  0.2022
  339SOL     OW 1015   3.591   1.755   3.547  0.1304  0.2513 -0.2967
  339SOL    HW1 1016   3.584   1.689   3.468  0.9904 -2.5224  1.5685
  339SOL    HW2 1017   3.643   1.839   3.520  1.1030  0.0950 -1.8033
  340SOL     OW 1018   2.294   0.643   1.570  0.1866 -0.0755 -0.5252
  340SOL    HW1 1019   2.312   0.634   1.469  1.2748  0.6585  2.1548
  340SOL    HW2 1020   2.383   0.656   1.621 -0.8603  2.3173  2.1196
  341SOL     OW 1021   2.214   1.441   1.106 -0.2183  0.4125  0.0299
  341SOL    HW1 1022   2.249   1.509   1.038  0.8043 -1.5125  1.5160
  341SOL    HW2 1023   2.221   1.346   1.067 -0.6996  2.9979 -0.2092
  342SOL     OW 1024   2.591   2.571   3.148  0.1465 -0.3800 -0.9272
  342SOL    HW1 1025   2.599   2.470   3.135 -1.3124 -0.8844  0.1401
  342SOL    HW2 1026   2.596   2.616   3.056 -0.1557  0.9213  0.0365
  343SOL     OW 1027   3.524   3.100   1.250 -0.1728 -0.1901  0.2662
  343SOL    HW1 1028   3.508   3.012   1.199  1.3690  1.3957 -3.8418
  343SOL    HW2 1029   3.543   3.080   1.348 -2.2081  1.7685 -0.9710
  344SOL     OW 1030   3.082   3.196   0.971 -1.4906  0.1393  0.1328
  344SOL    HW1 1031   3.007   3.229   1.034 -0.2770 -0.5009 -0.0864
  344SOL    HW2 1032   3.175   3.230   1.000  0.5123 -1.3893  2.8212
  345SOL     OW 1033   2.928   2.569   0.351  0.5285 -0.3401  0.4071
  345SOL    HW1 1034   2.826   2.557   0.362 -0.9710  2.7400  2.1774
  345SOL    HW2 1035   2.955   2.668   0.343 -1.1181 -1.6067 -0.0912
  346SOL     OW 1036   1.269   2.698   2.416 -0.2301  0.2940  0.4793
  346SOL    HW1 1037   1.236   2.774   2.479 -0.7017  0.6305  0.7301
  346SOL    HW2 1038   1.250   2.720   2.317 -1.2417  0.4508  1.0820
  347SOL     OW 1039   1.999   2.277   2.653  0.0303 -0.0259  0.1986
  347SOL    HW1 1040   1.970   2.375   2.676  2.6979 -1.6369  3.4099
  347SOL    HW2 1041   1.991   2.260   2.552  0.8795  2.9806  0.5548
  348SOL     OW 1042   0.472   2.194   1.378  0.2922  0.2208 -0.0644
  348SOL    HW1 1043   0.427   2.270   1.326  1.9065 -1.0043  0.6057
  348SOL    HW2 1044   0.574   2.201   1.365 -1.6084  0.5153 -2.0163
  349SOL     OW 1045   1.870   1.617   1.855 -0.6801 -0.5925  0.0342
  349SOL    HW1 1046   1.923   1.698   1.820 -0.2409 -0.7753  2.3870
  349SOL    HW2 1047   1.785   1.600   1.801  1.8689  0.7557 -3.0887
  350SOL     OW 1048   2.621   2.573   0.708  0.1675 -0.2530 -0.4480
  350SOL    HW1 1049   2.524   2.557   0.737 -0.5798 -0.9317  0.6211
  350SOL    HW2 1050   2.652   2.662   0.751 -2.2288  0.6261  0.1640
  351SOL     OW 1051   0.511   0.184   1.987  0.2979 -0.4024  0.6478
  351SOL    HW1 1052   0.547   0.178   2.083  0.7417  2.0850 -2.1868
  351SOL    HW2 1053   0.409   0.170   1.990 -0.9655 -3.4672  2.2343
  352SOL     OW 1054   0.671   1.294   0.380 -0.4927 -0.0913  0.1779
  352SOL    HW1 1055   0.635   1.388   0.362  0.5136  1.9258  1.9387
  352SOL    HW2 1056   0.720   1.252   0.300  1.1322  2.2573 -2.5229
  353SOL     OW 1057   0.860   1.677   3.268 -0.5494 -0.1291 -0.2475
  353SOL    HW1 1058   0.905   1.765   3.238 -1.0974  0.6701  0.5461
  353SOL    HW2 1059   0.877   1.594   3.208 -0.3125  0.7661  0.6895
  354SOL     OW 1060   2.068   2.728   2.135  0.3821  0.3570  0.2215
  354SOL    HW1 1061   2.099   2.823   2.108 -1.0487 -1.7710 -0.3293
  354SOL    HW2 1062   2.141   2.679   2.191  2.3399 -3.2234 -1.2734
  355SOL     OW 1063   2.672   0.963   3.304 -0.5034  0.2546 -0.0610
  355SOL    HW1 1064   2.676   0.864   3.333 -0.8511  0.4642  3.3253
  355SOL    HW2 1065   2.631   0.972   3.209  1.5835  0.8122  3.9097
  356SOL     OW 1066   0.831   2.528   1.575 -0.4082 -0.1415 -0.1779
  356SOL    HW1 1067   0.872   2.617   1.609 -2.3986 -1.8873 -1.0008
  356SOL    HW2 1068   0.777   2.483   1.649  0.2734 -2.4520 -0.1024
  357SOL     OW 1069   0.194   0.180   2.048  0.2725  0.0240  0.0395
  357SOL    HW1 1070   0.146   0.138   2.129  2.1674 -2.6916 -0.6184
  357SOL    HW2 1071   0.188   0.284   2.042 -1.1942  2.4820  0.6961
  358SOL     OW 1072   3.023   2.309   1.762 -0.5865 -0.1900 -0.7031
  358SOL    HW1 1073   3.022   2.242   1.684 -2.0068  0.4063  0.1258
  358SOL    HW2 1074   3.021   2.406   1.727  1.1117 -1.2359  1.0599
  359SOL     OW 1075   2.566   2.189   2.595  0.6911  0.6319 -0.1924
  359SOL    HW1 1076   2.478   2.213   2.640  0.6952  1.4057 -1.5627
  359SOL    HW2 1077   2.599   2.268   2.535  1.7142 -0.2165  0.3895
  360SOL     OW 1078   1.548   3.192   0.985  0.4064 -0.0747  0.2269
  360SOL    HW1 1079   1.487   3.188   1.067 -0.3402 -2.3463 -1.1585
  360SOL    HW2 1080   1.567   3.289   0.956 -0.2313  0.3055  0.2988
  361SOL     OW 1081   2.459   3.493   0.192 -0.1784 -0.4241 -0.0739
  361SOL    HW1 1082   2.375   3.441   0.221 -1.6308 -3.0217 -0.2843
  361SOL    HW2 1083   2.546   3.449   0.223 -2.3409 -0.1765  1.6808
  362SOL     OW 1084   2.100   0.845   1.668 -0.2731  0.5624  0.4148
  362SOL    HW1 1085   2.139   0.881   1.756  1.6729 -2.7123  2.0946
  362SOL    HW2 1086   2.157   0.767   1.634 -1.8119  0.6526  1.5740
  363SOL     OW 1087   2.050   1.765   2.560  0.0672  0.7746 -0.0769
  363SOL    HW1 1088   1.973   1.791   2.622 -1.6603  0.1590 -1.4533
  363SOL    HW2 1089   2.140   1.765   2.612 -1.3921 -0.7367 -0.5811
  364SOL     OW 1090   0.691   0.698   1.791 -0.7010  0.3918 -0.3422
  364SOL    HW1 1091   0.692   0.597   1.804  0.0641  1.4454 -0.1136
  364SOL    HW2 1092   0.657   0.725   1.698  1.1667 -0.3935 -1.6859
  365SOL     OW 1093   1.099   0.881   3.283  0.7362  0.2008  0.3144
  365SOL    HW1 1094   1.074   0.844   3.190 -0.5273  0.4982  2.1700
  365SOL    HW2 1095   1.075   0.982   3.290  0.1784  1.4285 -0.2599
  366SOL     OW 1096   2.647   1.355   3.145 -0.1723 -0.3276  0.3404
  366SOL    HW1 1097   2.722   1.309   3.199 -3.7907  0.6847  0.8395
  366SOL    HW2 1098   2.577   1.389   3.212 -0.0156 -2.3010  0.6302
  367SOL     OW 1099   0.020   3.081   2.618  0.4509 -0.0820  0.3606
  367SOL    HW1 1100  -0.054   3.030   2.669 -1.7916 -0.7163  1.2551
  367SOL    HW2 1101  -0.022   3.147   2.549  1.2792 -0.4573 -1.2443
  368SOL     OW 1102   3.533   1.294   1.649  0.0415  0.3459 -0.0582
  368SOL    HW1 1103   3.440   1.315   1.611 -0.9380  0.7508 -2.5056
  368SOL    HW2 1104   3.529   1.290   1.752  0.7648 -0.4045 -1.3319
  369SOL     OW 1105   0.476   3.466   2.516 -0.2152 -0.2959 -0.0019
  369SOL    HW1 1106   0.528   3.434   2.432 -0.6256  1.1375 -2.4481
  369SOL    HW2 1107   0.507   3.557   2.550  0.2542 -3.8531  1.1035
  370SOL     OW 1108   3.253   0.285   0.636 -0.1552  0.1062 -0.2504
  370SOL    HW1 1109   3.195   0.368   0.614  1.7612 -2.9142  1.7862
  370SOL    HW2 1110   3.207   0.219   0.701 -0.0028  1.1669  0.6478
  371SOL     OW 1111   0.924   2.757   1.716 -0.1658 -0.4618 -0.2625
  371SOL    HW1 1112   1.025   2.746   1.731  0.5108  1.3620  2.1338
  371SOL    HW2 1113   0.872   2.775   1.803  0.3475  2.1443  2.0379
  372SOL     OW 1114   2.630   0.311   2.782 -0.0569  0.6074  0.5347
  372SOL    HW1 1115   2.648   0.386   2.854  0.0716 -0.9159  0.3969
  372SOL    HW2 1116   2.529   0.286   2.794 -1.2299 -1.1244  0.1207
  373SOL     OW 1117   0.195   2.643   0.926 -0.4096  0.6103 -0.3198
  373SOL    HW1 1118   0.236   2.707   0.998  1.9946  0.3026  0.9198
  373SOL    HW2 1119   0.114   2.597   0.969 -0.8956 -0.0567  0.6310
  374SOL     OW 1120   3.397   0.395   2.638  0.4349  0.2793 -0.1007
  374SOL    HW1 1121   3.312   0.366   2.688  0.3841  0.8599 -2.7636
  374SOL    HW2 1122   3.459   0.436   2.708  0.6477  3.0632  0.3249
  375SOL     OW 1123   0.696   0.722   3.303 -0.4721 -0.8566  0.4563
  375SOL    HW1 1124   0.635   0.639   3.289 -0.3021 -0.5037  1.3379
  375SOL    HW2 1125   0.785   0.698   3.346  2.5920  0.0388 -0.8628
  376SOL     OW 1126   3.404   2.748   2.049  0.0841  0.1923  0.4429
  376SOL    HW1 1127   3.490   2.757   1.993 -2.3259 -0.7413 -1.6173
  376SOL    HW2 1128   3.318   2.771   1.997  0.9145 -3.4489  0.3847
  377SOL     OW 1129   1.256   0.483   3.220 -0.1953  0.2867 -0.0402
  377SOL    HW1 1130   1.229   0.389   3.249 -0.3608 -1.2166 -1.9047
  377SOL    HW2 1131   1.323   0.480   3.143 -2.0893 -0.7939  1.1544
  378SOL     OW 1132   3.529   1.274   3.355  0.4454  0.2840  0.0592
  378SOL    HW1 1133   3.614   1.220   3.329 -0.2590 -4.2378  0.7135
  378SOL    HW2 1134   3.445   1.230   3.311  0.8192 -1.0156  1.5867
  379SOL     OW 1135   1.635   0.773   3.038 -0.6595 -0.3745  0.0042
  379SOL    HW1 1136   1.570   0.758   2.957 -1.4823  0.2538  0.9705
  379SOL    HW2 1137   1.601   0.847   3.102 -2.9405  0.1897  1.6796
  380SOL     OW 1138   0.282   2.406   1.866 -0.6598  0.5077  0.1838
  380SOL    HW1 1139   0.343   2.463   1.928 -2.6280 -1.3364 -1.7150
  380SOL    HW2 1140   0.188   2.402   1.905  3.1175 -1.3762 -1.4183
  381SOL     OW 1141   3.604   1.579   3.316  0.2199 -0.3431  0.1044
  381SOL    HW1 1142   3.640   1.594   3.221 -0.7946 -1.1145  2.1267
  381SOL    HW2 1143   3.573   1.480   3.328 -1.7688 -0.4973 -0.0202
  382SOL     OW 1144   2.319   2.558   0.793 -0.2185 -0.2480 -0.0616
  382SOL    HW1 1145   2.235   2.508   0.756 -1.8568  2.6009 -3.3664
  382SOL    HW2 1146   2.307   2.566   0.896 -0.1545 -0.4261  1.5626
  383SOL     OW 1147   0.722   1.978   0.264 -0.2624 -0.3548  0.3690
  383SOL    HW1 1148   0.806   1.992   0.207 -0.6248 -0.4757 -1.3923
  383SOL    HW2 1149   0.745   1.908   0.336  3.0280  0.2801  1.6302
  384SOL     OW 1150   0.972   2.862   2.845 -0.4735  0.1854  0.0775
  384SOL    HW1 1151   0.877   2.891   2.816  1.1201  0.6786  1.9230
  384SOL    HW2 1152   0.969   2.761   2.865  0.1109 -2.1518  0.6604
  385SOL     OW 1153   2.831   2.312   0.742 -0.5790  0.6109  0.2576
  385SOL    HW1 1154   2.770   2.397   0.738 -1.7218  0.8902  0.9089
  385SOL    HW2 1155   2.917   2.323   0.686  1.4860 -0.0946  0.6562
  386SOL     OW 1156   2.821   0.649   1.158  0.4651  0.0135  0.3320
  386SOL    HW1 1157   2.787   0.555   1.185  3.9196  1.5073  0.6008
  386SOL    HW2 1158   2.784   0.680   1.066 -2.2165 -2.3528 -2.8086
  387SOL     OW 1159   0.779   1.152   2.383 -0.2162 -0.3856  0.5651
  387SOL    HW1 1160   0.718   1.185   2.458  0.5800  1.4118 -0.7457
  387SOL    HW2 1161   0.736   1.171   2.292  1.5565  1.6913  1.6445
  388SOL     OW 1162   1.230   1.745   2.918 -0.5225 -0.1000 -0.0947
  388SOL    HW1 1163   1.147   1.804   2.914 -2.0401 -0.9418 -1.6472
  388SOL    HW2 1164   1.319   1.795   2.911  1.0450  1.8334  1.2325
  389SOL     OW 1165   1.235   1.475   2.092  0.4427  0.1900 -0.1099
  389SOL    HW1 1166   1.189   1.383   2.091  0.3841  0.1646 -1.5278
  389SOL    HW2 1167   1.210   1.535   2.012 -0.1457 -0.4745  1.3797
  390SOL     OW 1168   0.035   3.605   1.225 -0.0394 -0.0737  0.5327
  390SOL    HW1 1169  -0.061   3.592   1.189 -2.7088  0.7519  1.6545
  390SOL    HW2 1170   0.088   3.670   1.167 -1.0355  1.2408 -0.3300
  391SOL     OW 1171   1.809   1.480   1.281  0.8693  0.7941 -0.1995
  391SOL    HW1 1172   1.787   1.451   1.185 -0.3842 -2.1990 -0.8130
  391SOL    HW2 1173   1.894   1.537   1.293  0.8320 -0.2931 -0.2339
  392SOL     OW 1174   3.405   3.618   0.237 -0.0006  0.4406 -0.2041
  392SOL    HW1 1175   3.494   3.598   0.190  0.8874  0.1132 -2.7910
  392SOL    HW2 1176   3.348   3.532   0.246 -0.5097 -2.7123  0.2769
  393SOL     OW 1177   1.850   2.572   3.533  0.3343 -0.3938 -0.3531
  393SOL    HW1 1178   1.856   2.472   3.505 -1.0672  0.7077  0.5236
  393SOL    HW2 1179   1.773   2.580   3.603  1.8762 -2.2535 -0.3439
  394SOL     OW 1180   0.034   2.894   3.265  0.4130  0.4794  0.6324
  394SOL    HW1 1181   0.052   2.888   3.163 -1.6173 -1.5807  2.5438
  394SOL    HW2 1182  -0.039   2.825   3.290  0.7263  1.5145  1.3878
  395SOL     OW 1183   0.173   0.156   1.053 -0.0946  0.2708  0.1131
  395SOL    HW1 1184   0.224   0.239   1.088  1.2356 -3.3500 -0.4275
  395SOL    HW2 1185   0.239   0.084   1.023  1.6994  1.0350  1.4967
  396SOL     OW 1186   2.586   0.678   0.578  0.3436  0.4605 -0.3389
  396SOL    HW1 1187   2.501   0.646   0.527  0.1063 -1.1403  2.4036
  396SOL    HW2 1188   2.670   0.636   0.537  0.2518  1.1203  0.3423
  397SOL     OW 1189   0.184   0.828   3.053  0.2304  0.1002 -0.3261
  397SOL    HW1 1190   0.130   0.844   3.140 -1.5298  2.6084  1.4621
  397SOL    HW2 1191   0.178   0.912   2.993 -0.3115 -0.8515  0.2139
  398SOL     OW 1192   0.699   0.170   3.555 -0.0022  0.1877 -0.3675
  398SOL    HW1 1193   0.631   0.172   3.477  1.4943 -0.5657 -0.3325
  398SOL    HW2 1194   0.790   0.213   3.532  1.6294 -0.9569 -1.6489
  399SOL     OW 1195   2.411   0.323   2.476  0.1565  0.0980  0.0670
  399SOL    HW1 1196   2.352   0.246   2.512  0.8482 -1.7406  0.1856
  399SOL    HW2 1197   2.448   0.299   2.381  1.7486  2.7754 -0.6990
  400SOL     OW 1198   1.154   2.554   3.401 -0.1934  0.5055  0.1385
  400SOL    HW1 1199   1.168   2.571   3.300  0.8538 -2.0433 -0.4885
  400SOL    HW2 1200   1.128   2.642   3.450 -0.0986 -1.5519  1.3945
  401SOL     OW 1201   0.392   1.427   2.887 -0.1833 -0.0348  0.0173
  401SOL    HW1 1202   0.339   1.407   2.801  0.4861  0.1853  0.6983
  401SOL    HW2 1203   0.332   1.479   2.953 -2.8337 -0.8872  3.8661
  402SOL     OW 1204   0.142   0.085   0.449  0.1822  0.8345  0.4067
  402SOL    HW1 1205   0.139  -0.007   0.497 -0.2888 -0.2530 -0.6421
  402SOL    HW2 1206   0.051   0.133   0.460 -0.5816  1.7973 -0.2577
  403SOL     OW 1207   0.369   1.426   1.844 -0.2762 -0.2079 -0.5733
  403SOL    HW1 1208   0.471   1.413   1.834 -0.4929  1.8661  1.2974
  403SOL    HW2 1209   0.322   1.437   1.753 -1.9375 -1.9932 -1.3343
  404SOL     OW 1210   2.691   2.958   3.052 -0.7893 -0.1741  0.2278
  404SOL    HW1 1211   2.628   3.004   3.118  0.1574  0.1351  0.2418
  404SOL    HW2 1212   2.642   2.880   3.004  0.7840 -1.2441  1.4933
  405SOL     OW 1213   0.248   0.504   2.410  0.3005 -0.1253  0.2576
  405SOL    HW1 1214   0.177   0.435   2.435 -0.7318 -0.7502  4.0617
  405SOL    HW2 1215   0.254   0.513   2.308 -1.9003  1.8986 -1.8997
  406SOL     OW 1216   1.472   1.793   3.399  0.2564 -0.7118 -0.3189
  406SOL    HW1 1217   1.543   1.858   3.365 -0.2841 -1.5570  0.3415
  406SOL    HW2 1218   1.467   1.798   3.501 -1.1045  0.8684  1.5947
  407SOL     OW 1219   2.363   0.485   2.954 -0.0340  0.1234 -0.6103
  407SOL    HW1 1220   2.333   0.392   2.921  0.3493 -1.7589  2.3923
  407SOL    HW2 1221   2.285   0.554   2.949  0.4851 -0.2936 -1.1348
  408SOL     OW 1222   0.513   3.215   2.730  0.0856  0.9989  0.3245
  408SOL    HW1 1223   0.419   3.189   2.766 -1.1792 -0.0005 -0.7708
  408SOL    HW2 1224   0.507   3.291   2.661  2.4857 -1.2613  0.1404
  409SOL     OW 1225   3.572   3.025   1.522  0.1843  0.4662 -0.3474
  409SOL    HW1 1226   3.597   3.116   1.563 -1.4797  2.1895  2.0357
  409SOL    HW2 1227   3.500   2.978   1.579 -0.8194  1.1511 -1.6666
  410SOL     OW 1228   3.477   2.053   0.461  0.3974  0.2619  0.2590
  410SOL    HW1 1229   3.560   2.103   0.425 -0.8676 -1.8952  3.3167
  410SOL    HW2 1230   3.495   1.952   0.460  0.0685  0.7005 -0.8710
  411SOL     OW 1231   2.913   0.143   1.809  0.2031 -0.6777  0.1772
  411SOL    HW1 1232   2.821   0.189   1.795  0.6631 -1.5850  1.2211
  411SOL    HW2 1233   2.902   0.049   1.850 -2.6483  0.8283  0.0845
  412SOL     OW 1234   2.645   0.455   1.842 -0.3802  0.1133 -0.8667
  412SOL    HW1 1235   2.580   0.381   1.811  0.9526 -3.2527  0.5920
  412SOL    HW2 1236   2.615   0.545   1.804 -0.1450 -0.2722  0.6675
  413SOL     OW 1237   3.559   0.500   2.845  0.3799  0.2223  0.2589
  413SOL    HW1 1238   3.581   0.601   2.863 -1.4868 -0.5062  1.5666
  413SOL    HW2 1239   3.595   0.442   2.923  1.3317 -0.5521  2.6310
  414SOL     OW 1240   3.179   1.646   0.349 -0.4511  0.2520 -0.1125
  414SOL    HW1 1241   3.137   1.564   0.395  1.7972  1.9319  2.0946
  414SOL    HW2 1242   3.150   1.730   0.401 -3.4108 -0.9738  0.0310
  415SOL     OW 1243   0.960   2.952   0.180  0.4542 -0.1378 -0.4032
  415SOL    HW1 1244   1.001   3.046   0.179 -0.1185  0.3553 -0.1645
  415SOL    HW2 1245   0.977   2.905   0.271 -0.7084  0.1169  1.3028
  416SOL     OW 1246   1.725   3.156   3.066  0.0485 -0.1402  0.1571
  416SOL    HW1 1247   1.677   3.088   3.126  1.1820 -1.8127  1.5190
  416SOL    HW2 1248   1.819   3.187   3.101  1.0201  0.7351 -0.1896
  417SOL     OW 1249   0.305   1.173   1.462 -0.0995 -0.0849 -0.3836
  417SOL    HW1 1250   0.290   1.143   1.363 -0.3732  0.7422  0.5656
  417SOL    HW2 1251   0.398   1.151   1.499 -0.5910 -0.0507 -0.0112
  418SOL     OW 1252   3.105   0.098   0.820 -0.4713 -0.0028  0.1825
  418SOL    HW1 1253   3.012   0.057   0.818 -1.0090  1.7081 -1.0125
  418SOL    HW2 1254   3.132   0.125   0.917  1.7580 -1.3772 -0.3678
  419SOL     OW 1255   0.311   0.020   0.224 -0.1107 -0.5466 -0.5962
  419SOL    HW1 1256   0.251   0.054   0.300 -1.8568 -3.6268  0.9035
  419SOL    HW2 1257   0.409   0.004   0.254  1.0793  0.5207  0.2005
  420SOL     OW 1258   0.141   1.406   1.546 -0.7784 -0.4246 -0.1194
  420SOL    HW1 1259   0.200   1.329   1.512  0.4390  0.8865 -0.2873
  420SOL    HW2 1260   0.053   1.368   1.584  0.5044  0.2536  0.6617
  421SOL     OW 1261   2.090   3.074   0.779 -0.6108 -0.2149  0.3080
  421SOL    HW1 1262   2.123   2.990   0.731  0.3876  1.3715  3.1836
  421SOL    HW2 1263   2.003   3.057   0.831  0.9827  1.5061 -0.3943
  422SOL     OW 1264   0.219   0.458   1.781  0.3813  0.1942 -0.4750
  422SOL    HW1 1265   0.282   0.439   1.702 -2.3097  0.6402 -2.2349
  422SOL    HW2 1266   0.149   0.526   1.754 -1.2463 -0.4241 -4.1336
  423SOL     OW 1267   1.213   1.623   2.368 -0.3494 -0.5140  0.7454
  423SOL    HW1 1268   1.232   1.574   2.279 -0.5013  1.4853 -0.2821
  423SOL    HW2 1269   1.218   1.725   2.358 -0.8500 -0.0531 -1.0840
  424SOL     OW 1270   2.048   2.452   0.715  0.6749 -0.1642 -0.0191
  424SOL    HW1 1271   2.013   2.427   0.622 -0.0954  0.9090  0.8105
  424SOL    HW2 1272   1.994   2.406   0.791  1.4086 -0.1045  0.3787
  425SOL     OW 1273   3.362   3.383   2.397 -0.4805 -0.0850 -0.0402
  425SOL    HW1 1274   3.268   3.375   2.439  1.8215 -2.5147  1.7799
  425SOL    HW2 1275   3.376   3.467   2.340  2.5343 -1.0987 -1.2896
  426SOL     OW 1276   0.388   3.392   3.176 -0.7094 -0.0817 -0.1690
  426SOL    HW1 1277   0.356   3.398   3.273  0.9214  1.0903  0.0348
  426SOL    HW2 1278   0.316   3.429   3.114  1.1511 -0.6814  0.1426
  427SOL     OW 1279   1.218   3.580   0.093 -0.1902 -0.1873 -0.1985
  427SOL    HW1 1280   1.139   3.617   0.148  2.1893  0.6431  0.6383
  427SOL    HW2 1281   1.188   3.501   0.034 -0.5489 -0.2449 -1.6243
  428SOL     OW 1282   3.318   0.581   1.795 -0.1203  0.4071 -1.2389
  428SOL    HW1 1283   3.334   0.484   1.826  1.9733  0.2205 -1.2903
  428SOL    HW2 1284   3.255   0.581   1.714  0.0610  1.9401  0.6436
  429SOL     OW 1285   2.437   3.467   0.631  0.1521 -0.0703 -0.3511
  429SOL    HW1 1286   2.394   3.383   0.588 -0.9889 -0.5874 -0.1940
  429SOL    HW2 1287   2.533   3.484   0.598  0.4787 -1.6201  0.8950
  430SOL     OW 1288   1.286   1.610   3.218 -0.2139  0.5810  0.1106
  430SOL    HW1 1289   1.346   1.671   3.277  0.1469  2.3273 -2.5982
  430SOL    HW2 1290   1.269   1.653   3.125 -3.0470  0.8239 -1.6405
  431SOL     OW 1291   3.221   2.640   1.393 -0.1319 -0.6481  0.5259
  431SOL    HW1 1292   3.321   2.666   1.381 -2.7792 -1.6316  1.1472
  431SOL    HW2 1293   3.189   2.601   1.303  1.0775  1.5195 -2.9263
  432SOL     OW 1294   1.861   2.789   3.312 -0.5671 -0.0870  0.0757
  432SOL    HW1 1295   1.898   2.755   3.222  0.3165 -0.3212 -1.1163
  432SOL    HW2 1296   1.850   2.715   3.384  1.3793  0.2075  1.7042
  433SOL     OW 1297   1.434   0.469   3.012 -0.3078 -0.0144  0.3210
  433SOL    HW1 1298   1.425   0.501   2.913 -0.4817 -0.9542  0.5889
  433SOL    HW2 1299   1.530   0.469   3.052 -1.4288  0.5885 -1.0329
  434SOL     OW 1300   1.488   3.264   2.510  0.4575 -0.4104 -0.2200
  434SOL    HW1 1301   1.518   3.280   2.609  2.6386 -0.9787 -0.8560
  434SOL    HW2 1302   1.573   3.227   2.462 -1.8993  0.4316  0.9155
  435SOL     OW 1303   0.316   0.050   3.527 -0.6687  0.4288 -0.4777
  435SOL    HW1 1304   0.335   0.050   3.629  1.7441  2.8834  0.8448
  435SOL    HW2 1305   0.233   0.109   3.505  0.9871  0.1621  1.7184
  436SOL     OW 1306   0.701   1.484   2.845  0.1286 -0.3901  0.1193
  436SOL    HW1 1307   0.600   1.480   2.866  1.8281 -2.2886  1.3459
  436SOL    HW2 1308   0.724   1.550   2.770  1.1625  0.5739 -0.8260
  437SOL     OW 1309   1.376   2.860   2.994  0.1801 -0.3424 -0.1139
  437SOL    HW1 1310   1.419   2.840   2.902  3.4681 -0.8035 -1.3858
  437SOL    HW2 1311   1.316   2.943   2.991  1.4344 -0.5259 -1.5084
  438SOL     OW 1312   0.708   1.018   0.784  0.0357 -0.4269 -0.0151
  438SOL    HW1 1313   0.655   0.977   0.863 -2.3865 -0.0286 -0.7653
  438SOL    HW2 1314   0.772   0.947   0.745  1.1952 -0.7045 -0.7911
  439SOL     OW 1315   3.563   1.751   2.465 -0.3897  0.5306 -0.4383
  439SOL    HW1 1316   3.489   1.694   2.507 -0.9972 -2.6141 -0.2079
  439SOL    HW2 1317   3.537   1.851   2.453 -2.9231  1.6142  0.9465
  440SOL     OW 1318   3.337   0.921   3.242  0.4243  0.2352  0.3841
  440SOL    HW1 1319   3.312   0.848   3.175  0.3996 -2.0731 -1.0083
  440SOL    HW2 1320   3.278   1.004   3.235 -2.0922  1.3476  0.1396
  441SOL     OW 1321   0.734   2.133   1.682 -0.3090 -0.7118  0.0230
  441SOL    HW1 1322   0.631   2.124   1.680  0.8823 -0.2444 -4.9722
  441SOL    HW2 1323   0.757   2.224   1.728  2.6958  2.7292  0.7411
  442SOL     OW 1324   2.276   1.696   0.870 -0.2670  0.2017  0.3327
  442SOL    HW1 1325   2.280   1.651   0.778  0.6819  2.4557  3.4099
  442SOL    HW2 1326   2.187   1.744   0.886 -1.9102 -1.6411  0.0387
  443SOL     OW 1327   2.830   2.503   3.508  0.3786 -0.1930  0.8374
  443SOL    HW1 1328   2.772   2.431   3.462 -1.5422  0.9727 -0.6492
  443SOL    HW2 1329   2.924   2.511   3.466  0.4239  0.2457 -0.8664
  444SOL     OW 1330   2.033   1.713   3.476 -0.4914 -0.3029  0.3926
  444SOL    HW1 1331   1.983   1.801   3.498  1.5763  0.8325  0.9720
  444SOL    HW2 1332   2.014   1.677   3.382  0.7900  0.4997 -1.8188
  445SOL     OW 1333   0.493   2.557   2.357  0.5346 -0.3697  0.2705
  445SOL    HW1 1334   0.562   2.629   2.385 -0.6614  1.6891  0.2578
  445SOL    HW2 1335   0.410   2.561   2.420  0.8179 -0.6790 -0.2986
  446SOL     OW 1336   1.133   1.211   2.083  0.7926  0.0935  0.6016
  446SOL    HW1 1337   1.219   1.159   2.063 -0.4046  0.2856 -0.2491
  446SOL    HW2 1338   1.082   1.171   2.164  1.3550  0.5830 -1.1858
  447SOL     OW 1339   0.873   0.797   0.652 -0.6675  0.5550  0.3625
  447SOL    HW1 1340   0.795   0.740   0.615 -2.0485 -0.6360  1.0048
  447SOL    HW2 1341   0.947   0.817   0.584 -0.3387 -1.7566 -1.2380
  448SOL     OW 1342   1.578   1.229   2.359  0.2266 -0.2509  0.1586
  448SOL    HW1 1343   1.543   1.292   2.286 -1.3950  2.5270 -1.9400
  448SOL    HW2 1344   1.670   1.189   2.334  0.9011  1.0570 -0.3579
  449SOL     OW 1345   0.193   1.890   2.841 -0.1955 -0.0852 -0.1850
  449SOL    HW1 1346   0.157   1.931   2.929 -1.9796 -1.9726  0.2582
  449SOL    HW2 1347   0.186   1.959   2.765  1.1600 -3.0803  0.4430
  450SOL     OW 1348   2.583   1.651   2.242  0.0511  0.6187  0.7758
  450SOL    HW1 1349   2.575   1.717   2.322  1.1391  0.8164  0.2526
  450SOL    HW2 1350   2.678   1.650   2.199 -0.2981  0.4819 -1.1751
  451SOL     OW 1351   2.781   1.710   1.599 -0.3079 -0.4401 -0.3646
  451SOL    HW1 1352   2.816   1.628   1.651  1.0447 -0.4608  3.4221
  451SOL    HW2 1353   2.834   1.727   1.512  0.6713  1.8320 -3.2467
  452SOL     OW 1354   0.891   1.154   1.579  0.6150 -0.1541  0.3476
  452SOL    HW1 1355   0.916   1.150   1.678  0.9059 -1.0518 -0.3189
  452SOL    HW2 1356   0.976   1.176   1.523  0.7355  1.0564 -0.0306
  453SOL     OW 1357   0.337   2.388   1.202  0.0824 -0.3957  0.5709
  453SOL    HW1 1358   0.245   2.392   1.248  1.1613 -1.7023 -1.8567
  453SOL    HW2 1359   0.340   2.366   1.101 -1.4677 -4.5816 -1.4440
  454SOL     OW 1360   1.411   1.476   0.334 -0.7647  0.1815  0.6474
  454SOL    HW1 1361   1.494   1.535   0.319  1.6514  1.7612 -0.3831
  454SOL    HW2 1362   1.427   1.412   0.413 -2.1244 -2.3420 -0.2082
  455SOL     OW 1363   2.112   0.529   0.958 -0.7834  0.5168 -0.0685
  455SOL    HW1 1364   2.122   0.431   0.927  1.5632  1.3571  0.8193
  455SOL    HW2 1365   2.144   0.598   0.888  3.2759 -1.1194  0.3850
  456SOL     OW 1366   2.141   3.351   0.302 -0.3446 -0.0750  0.0924
  456SOL    HW1 1367   2.066   3.282   0.279  0.0573 -3.2647 -0.4977
  456SOL    HW2 1368   2.111   3.451   0.293  1.1073 -0.7758 -2.1742
  457SOL     OW 1369   2.443   1.351   2.382 -0.1794 -0.4736 -0.3992
  457SOL    HW1 1370   2.475   1.434   2.328 -4.3620  1.2872  0.9989
  457SOL    HW2 1371   2.483   1.350   2.476 -0.3662 -1.1229 -0.0597
  458SOL     OW 1372   2.979   0.600   2.799  0.0489 -0.1360 -0.2227
  458SOL    HW1 1373   2.892   0.624   2.849 -0.7458  0.4906 -0.6442
  458SOL    HW2 1374   2.994   0.667   2.722 -3.0139  1.6261 -0.9313
  459SOL     OW 1375   2.891   1.839   3.041 -0.4185  0.0613 -0.4448
  459SOL    HW1 1376   2.968   1.851   3.108 -0.7591 -0.2146  1.6347
  459SOL    HW2 1377   2.887   1.743   3.004  2.4823 -1.1834  1.1870
  460SOL     OW 1378   1.157   1.056   2.948 -0.2455 -0.6267  0.0844
  460SOL    HW1 1379   1.181   1.123   2.871 -0.0716  0.7206  0.8215
  460SOL    HW2 1380   1.189   1.094   3.039  0.2687  0.0897  2.2942
  461SOL     OW 1381   0.108   2.747   0.213 -0.2508  0.0048 -0.0152
  461SOL    HW1 1382   0.178   2.813   0.250  0.5655  0.2379  1.4188
  461SOL    HW2 1383   0.020   2.795   0.189  1.1173 -1.5791  0.3725
  462SOL     OW 1384   1.641   3.297   2.816  0.1580 -0.1351  0.0580
  462SOL    HW1 1385   1.663   3.238   2.898  3.2616 -1.3971  0.7443
  462SOL    HW2 1386   1.715   3.366   2.799  1.5506  1.7821 -1.0967
  463SOL     OW 1387   2.465   2.509   2.302 -1.2948 -0.8178  0.5480
  463SOL    HW1 1388   2.397   2.432   2.307 -1.1750 -0.7698  0.5873
  463SOL    HW2 1389   2.559   2.474   2.323 -0.1165 -0.2337 -0.2816
  464SOL     OW 1390   3.055   2.893   0.918 -0.0876  0.5388 -0.1218
  464SOL    HW1 1391   2.956   2.870   0.899 -0.9279 -0.9667  1.0320
  464SOL    HW2 1392   3.073   2.993   0.931 -0.8730 -2.8858  0.3064
  465SOL     OW 1393   0.006   0.165   1.710 -0.3915  0.6356 -0.1915
  465SOL    HW1 1394   0.046   0.109   1.634  0.5754  1.4205  0.6386
  465SOL    HW2 1395   0.079   0.193   1.777 -1.9691 -0.7668  1.3709
  466SOL     OW 1396   1.622   2.959   3.244 -0.5788 -0.0054 -0.2333
  466SOL    HW1 1397   1.703   2.903   3.275  0.9509  1.4351 -1.0714
  466SOL    HW2 1398   1.549   2.910   3.189  0.1404  0.5319 -2.4886
  467SOL     OW 1399   0.009   2.453   0.298  0.4672  0.3238 -0.4324
  467SOL    HW1 1400  -0.059   2.427   0.225  1.5303 -0.1500  0.6263
  467SOL    HW2 1401   0.041   2.550   0.284  0.4340  1.9782 -1.7150
  468SOL     OW 1402   2.457   2.715   3.342  0.2138  0.0338 -0.3420
  468SOL    HW1 1403   2.512   2.665   3.270 -0.5690  0.4829 -2.3845
  468SOL    HW2 1404   2.377   2.765   3.298 -0.7651  0.7625  0.1615
  469SOL     OW 1405   1.027   2.208   0.846 -0.1193 -0.0794 -0.3005
  469SOL    HW1 1406   0.976   2.226   0.934  2.0417 -1.1027 -0.1515
  469SOL    HW2 1407   1.083   2.289   0.815 -2.5169 -0.7856  0.6029
  470SOL     OW 1408   2.306   0.815   0.782  0.2894  0.0398 -0.3545
  470SOL    HW1 1409   2.373   0.773   0.715 -1.6741 -0.2985  0.0792
  470SOL    HW2 1410   2.340   0.833   0.879 -1.2420 -0.5408 -2.8775
  471SOL     OW 1411   0.369   2.202   0.628 -0.5173 -0.3056 -0.0432
  471SOL    HW1 1412   0.445   2.201   0.559  0.4942  1.0173  0.5040
  471SOL    HW2 1413   0.369   2.293   0.679  0.5118  1.0072  2.0248
  472SOL     OW 1414   3.087   2.523   3.403  0.1246  0.5875 -0.9102
  472SOL    HW1 1415   3.150   2.561   3.475  0.2719  0.5752 -1.4056
  472SOL    HW2 1416   3.118   2.547   3.308  1.0046 -2.5096  0.0004
  473SOL     OW 1417   1.687   2.096   0.913  0.1819  0.0115  0.3065
  473SOL    HW1 1418   1.765   2.163   0.908 -1.7105  2.7902  1.1532
  473SOL    HW2 1419   1.644   2.088   0.820 -1.3967 -0.4505 -3.7966
  474SOL     OW 1420   3.340   0.538   1.381 -0.0009 -0.2436  0.2135
  474SOL    HW1 1421   3.324   0.519   1.280 -0.9339 -0.2310  2.4312
  474SOL    HW2 1422   3.412   0.476   1.419  1.1830  1.7992  2.1780
  475SOL     OW 1423   3.425   3.616   2.177 -0.0922 -0.5003 -0.3350
  475SOL    HW1 1424   3.429   3.572   2.085 -2.2268  0.6489 -0.2395
  475SOL    HW2 1425   3.356   3.692   2.171  0.0670 -1.6804  1.2257
  476SOL     OW 1426   0.653   0.338   1.084 -0.2733 -0.0905 -0.1709
  476SOL    HW1 1427   0.708   0.423   1.064 -3.9865  0.1356  0.4890
  476SOL    HW2 1428   0.635   0.286   0.996 -1.6316  1.4465 -1.8174
  477SOL     OW 1429   1.409   2.912   1.365 -0.0841 -0.1558 -0.2075
  477SOL    HW1 1430   1.399   2.907   1.468 -0.7499 -0.1548  2.4749
  477SOL    HW2 1431   1.508   2.888   1.345 -1.8501 -1.6169 -4.2856
  478SOL     OW 1432   1.383   3.169   0.113  0.4262  0.2166  0.0350
  478SOL    HW1 1433   1.403   3.177   0.012 -1.5839 -0.1461  0.9653
  478SOL    HW2 1434   1.444   3.230   0.169 -1.0403 -1.0023  1.7894
  479SOL     OW 1435   2.996   1.367   2.530 -0.4056  0.0271  0.4167
  479SOL    HW1 1436   2.921   1.306   2.566 -2.4966  3.0824 -0.8038
  479SOL    HW2 1437   3.031   1.336   2.438 -1.8138  1.6793  1.1598
  480SOL     OW 1438   3.171   2.633   3.146  0.1254 -0.2668 -0.5754
  480SOL    HW1 1439   3.198   2.619   3.047 -1.5221 -0.3753  0.1348
  480SOL    HW2 1440   3.082   2.684   3.150 -0.6585 -1.8062  2.2659
  481SOL     OW 1441   1.898   3.117   1.948 -0.0937 -0.2297  0.8782
  481SOL    HW1 1442   1.980   3.073   1.993  0.9998 -0.9665  0.5543
  481SOL    HW2 1443   1.909   3.130   1.845 -4.5505  4.6237  0.7384
  482SOL     OW 1444   1.815   2.636   2.681  0.1487 -0.3216  0.2935
  482SOL    HW1 1445   1.783   2.595   2.593  3.1992 -1.6984 -2.5317
  482SOL    HW2 1446   1.836   2.736   2.672  0.2033  3.3724  2.8154
  483SOL     OW 1447   1.414   3.185   3.441  0.0243 -0.5428  0.2348
  483SOL    HW1 1448   1.379   3.220   3.350  0.2660 -1.3104  1.6487
  483SOL    HW2 1449   1.490   3.116   3.418 -1.4021  1.6410 -0.3006
  484SOL     OW 1450   2.880   3.494   1.948 -0.1994 -0.0834  0.3918
  484SOL    HW1 1451   2.787   3.452   1.961  0.2167 -0.7182 -1.7847
  484SOL    HW2 1452   2.948   3.418   1.933  0.2677  1.2087 -0.5333
  485SOL     OW 1453   2.344   0.614   0.410  0.1818 -0.2432 -0.7936
  485SOL    HW1 1454   2.318   0.705   0.368  0.2611 -2.6169 -1.5481
  485SOL    HW2 1455   2.260   0.561   0.438 -1.1750  0.3556 -1.3437
  486SOL     OW 1456   2.771   3.190   2.902  0.9400  0.2173  0.2799
  486SOL    HW1 1457   2.815   3.262   2.962  1.5126 -0.4374  0.9226
  486SOL    HW2 1458   2.744   3.105   2.951 -1.2974 -1.2540 -1.0341
  487SOL     OW 1459   1.439   0.991   0.849  0.2246 -0.0866 -0.0876
  487SOL    HW1 1460   1.384   1.033   0.774 -3.0578  2.0644  5.3256
  487SOL    HW2 1461   1.382   0.991   0.936  1.2578 -0.8162 -2.4441
  488SOL     OW 1462   3.147   3.414   2.767 -0.5280  0.3001  0.1262
  488SOL    HW1 1463   3.126   3.393   2.669  4.6598  3.1222  0.1139
  488SOL    HW2 1464   3.109   3.508   2.787  2.1661  3.6061 -0.0716
  489SOL     OW 1465   1.402   3.241   0.524  0.1236 -0.8566 -0.0499
  489SOL    HW1 1466   1.358   3.315   0.580  0.6883  1.2441  1.3106
  489SOL    HW2 1467   1.338   3.159   0.522 -0.5739  0.6091  1.5042
  490SOL     OW 1468   1.847   0.782   3.544 -0.3308  0.0608 -0.1558
  490SOL    HW1 1469   1.861   0.831   3.454 -2.7559 -0.3477 -0.8795
  490SOL    HW2 1470   1.749   0.783   3.578 -1.4168  0.3802  0.5456
  491SOL     OW 1471   1.072   0.052   1.442  0.2569  0.3909 -0.5234
  491SOL    HW1 1472   0.988   0.097   1.400 -0.5876  2.9820 -1.9874
  491SOL    HW2 1473   1.054   0.015   1.536  0.5480 -1.0162  0.3492
  492SOL     OW 1474   1.907   3.201   0.237 -0.1957 -0.4818 -0.0752
  492SOL    HW1 1475   1.838   3.173   0.308 -1.5755  2.1547 -1.9619
  492SOL    HW2 1476   1.852   3.264   0.174  1.6589  0.2462 -0.9138
  493SOL     OW 1477   1.202   2.302   3.518  0.0877 -0.2187 -0.0902
  493SOL    HW1 1478   1.220   2.237   3.440 -1.3127  1.3185  1.9473
  493SOL    HW2 1479   1.181   2.394   3.480  1.7567  0.4168 -1.2403
  494SOL     OW 1480   0.881   0.330   0.593  0.3192  0.0108  0.1415
  494SOL    HW1 1481   0.792   0.314   0.543 -0.8358  0.1356 -0.8344
  494SOL    HW2 1482   0.928   0.417   0.559  2.3979 -1.0706  3.1963
  495SOL     OW 1483   3.246   0.202   2.149 -0.3620  0.3265 -0.0235
  495SOL    HW1 1484   3.267   0.246   2.058  0.3200  2.0029 -0.2984
  495SOL    HW2 1485   3.243   0.275   2.223  0.1246  1.4658  0.4267
  496SOL     OW 1486   2.720   2.235   2.872  0.3689 -0.1519 -0.3027
  496SOL    HW1 1487   2.660   2.219   2.789  1.6410  0.2367 -1.6527
  496SOL    HW2 1488   2.814   2.201   2.847  2.2470  0.0608  1.5148
  497SOL     OW 1489   1.837   1.384   3.191 -0.0309  0.5261 -0.0385
  497SOL    HW1 1490   1.919   1.445   3.174 -2.1108  1.0275 -0.3576
  497SOL    HW2 1491   1.775   1.423   3.264  0.7453 -1.4122  0.2737
  498SOL     OW 1492   0.896   3.270   1.491  0.2077  0.1420  0.6075
  498SOL    HW1 1493   0.824   3.336   1.456  2.8648  0.8481 -1.2186
  498SOL    HW2 1494   0.860   3.174   1.492  0.8665  1.4602 -0.1898
  499SOL     OW 1495   0.067   2.356   1.299  0.1228 -0.4626  0.3530
  499SOL    HW1 1496   0.019   2.324   1.214 -0.6535  0.3095 -2.7229
  499SOL    HW2 1497   0.044   2.289   1.373  2.5187  2.6499  0.5927
  500SOL     OW 1498   0.826   3.180   3.165 -0.7255 -0.1610 -0.5393
  500SOL    HW1 1499   0.733   3.139   3.186 -0.5599 -0.8495  4.9029
  500SOL    HW2 1500   0.827   3.226   3.072 -0.4551 -1.1328 -1.9082
  501SOL     OW 1501   1.976   3.617   0.049  0.1720 -0.4667 -0.3079
  501SOL    HW1 1502   2.030   3.705   0.059  0.4378  1.2607 -0.9991
  501SOL    HW2 1503   1.918   3.595   0.131  0.6372  2.1358 -0.5668
  502SOL     OW 1504   3.554   0.132   0.881  0.6034 -0.5947 -0.1995
  502SOL    HW1 1505   3.517   0.222   0.844  0.1224 -2.4058 -3.2860
  502SOL    HW2 1506   3.642   0.147   0.934  0.7988  0.5063  0.5154
  503SOL     OW 1507   2.323   3.446   2.545  0.4035 -0.2571  0.2624
  503SOL    HW1 1508   2.398   3.405   2.601 -0.2556 -1.3220  1.4055
  503SOL    HW2 1509   2.237   3.390   2.557 -0.6126  0.3013 -0.0447
  504SOL     OW 1510   2.850   1.701   2.137 -0.1346 -0.3045  0.4557
  504SOL    HW1 1511   2.826   1.790   2.092 -0.1124 -4.0406  1.9841
  504SOL    HW2 1512   2.920   1.644   2.087  1.0741  2.2145 -2.0953
  505SOL     OW 1513   2.022   3.284   2.617  0.2475  0.0378  0.2874
  505SOL    HW1 1514   1.975   3.351   2.680 -0.1523 -0.2852  0.0312
  505SOL    HW2 1515   1.962   3.260   2.536 -0.2642  0.7765  0.9398
  506SOL     OW 1516   0.247   0.816   2.532 -0.1401 -0.3828 -0.2915
  506SOL    HW1 1517   0.243   0.721   2.493 -1.1393  0.5667 -1.9057
  506SOL    HW2 1518   0.308   0.810   2.614 -0.6850 -1.7865 -0.8968
  507SOL     OW 1519   2.080   0.497   0.448 -0.1191  0.5441 -0.3694
  507SOL    HW1 1520   2.039   0.582   0.410 -1.0063  2.6699  0.7352
  507SOL    HW2 1521   2.012   0.453   0.512  3.7469 -0.6236  2.5693
  508SOL     OW 1522   2.448   0.562   2.130  0.2896  0.6769  0.4176
  508SOL    HW1 1523   2.429   0.645   2.072 -1.0114 -0.9662 -1.9912
  508SOL    HW2 1524   2.531   0.576   2.192  0.5380  1.9777 -1.6347
  509SOL     OW 1525   0.788   2.250   3.587 -0.6406  0.6080  0.1480
  509SOL    HW1 1526   0.870   2.204   3.631 -0.9740 -2.6038 -0.9537
  509SOL    HW2 1527   0.704   2.215   3.638 -0.2096  3.1171 -0.3858
  510SOL     OW 1528   0.293   1.089   1.190  0.2470 -0.0237  0.3001
  510SOL    HW1 1529   0.207   1.066   1.139  3.8186 -1.8829  0.6749
  510SOL    HW2 1530   0.354   1.142   1.126 -1.2645 -0.5983  1.8879
  511SOL     OW 1531   1.768   1.224   1.437 -0.4878 -0.0927  0.3611
  511SOL    HW1 1532   1.849   1.161   1.432 -0.5460 -1.2418  1.0741
  511SOL    HW2 1533   1.783   1.315   1.393 -0.7512  2.6589 -0.4537
  512SOL     OW 1534   0.406   2.457   0.757  0.4450  0.7891 -1.0059
  512SOL    HW1 1535   0.349   2.515   0.818  0.9407 -1.5727  0.0557
  512SOL    HW2 1536   0.506   2.476   0.767  0.6808  1.7830  0.2941
  513SOL     OW 1537   0.293   2.823   1.141  0.0620 -0.1756 -0.3811
  513SOL    HW1 1538   0.245   2.822   1.233 -2.4326 -0.8436  2.6396
  513SOL    HW2 1539   0.303   2.920   1.107 -1.7621 -0.3938  2.0384
  514SOL     OW 1540   0.704   2.505   0.761 -0.0720  0.0610  0.2437
  514SOL    HW1 1541   0.772   2.550   0.824 -1.6279 -0.0916  0.3109
  514SOL    HW2 1542   0.750   2.467   0.676 -0.4526  1.2139  2.2311
  515SOL     OW 1543   3.514   0.360   3.516  1.1204 -0.0364 -0.0748
  515SOL    HW1 1544   3.425   0.335   3.563  0.3292  1.3910  0.2320
  515SOL    HW2 1545   3.564   0.441   3.561  0.4252  0.5273 -0.0641
  516SOL     OW 1546   2.540   3.596   1.585  0.0492  0.0940  0.1778
  516SOL    HW1 1547   2.482   3.533   1.640  0.0731  0.4634 -1.7371
  516SOL    HW2 1548   2.507   3.596   1.487 -0.9591  1.3835  2.1615
  517SOL     OW 1549   2.039   1.842   0.890 -0.1368 -0.4027 -0.4380
  517SOL    HW1 1550   2.076   1.917   0.830 -1.6494  0.2007  0.1727
  517SOL    HW2 1551   2.009   1.875   0.984  2.4741 -0.2464 -0.8394
  518SOL     OW 1552   2.123   3.321   0.963  0.3323  0.2133  0.2516
  518SOL    HW1 1553   2.088   3.283   1.054  2.2869 -4.2292  2.6889
  518SOL    HW2 1554   2.120   3.248   0.891  2.6824  2.5392  0.6900
  519SOL     OW 1555   3.426   2.933   0.140  0.0624 -0.0391  0.6149
  519SOL    HW1 1556   3.387   2.959   0.233  0.3188 -0.1298  1.8531
  519SOL    HW2 1557   3.447   3.017   0.080  0.2050  0.5486  0.3556
  520SOL     OW 1558   2.654   1.926   2.524  0.6845  0.5765 -0.0950
  520SOL    HW1 1559   2.619   2.018   2.554 -0.5853 -2.4081  0.4300
  520SOL    HW2 1560   2.621   1.852   2.586 -0.2086 -0.4175 -1.6632
  521SOL     OW 1561   1.743   3.449   2.251 -0.2141 -0.1137 -0.2874
  521SOL    HW1 1562   1.766   3.452   2.150  2.3835  1.9021 -0.6221
  521SOL    HW2 1563   1.647   3.485   2.267  3.4016 -1.8104 -0.6030
  522SOL     OW 1564   0.365   3.034   2.227  0.3385  0.0773  0.3618
  522SOL    HW1 1565   0.322   2.973   2.299  1.9733  0.2836 -0.1991
  522SOL    HW2 1566   0.297   3.107   2.202  2.9176  0.8582 -0.3149
  523SOL     OW 1567   0.691   2.821   2.506  0.2606  0.6099  0.6203
  523SOL    HW1 1568   0.688   2.864   2.600 -0.8244 -2.6457  1.1472
  523SOL    HW2 1569   0.698   2.897   2.437 -0.3969 -2.9824 -1.8669
  524SOL     OW 1570   2.646   2.542   0.427  0.9199  0.6574  0.6457
  524SOL    HW1 1571   2.579   2.472   0.393 -0.5690  0.9977 -2.0207
  524SOL    HW2 1572   2.631   2.562   0.527 -1.0882 -1.2810 -0.6329
  525SOL     OW 1573   3.120   0.762   3.032  0.3894 -0.4078 -0.6776
  525SOL    HW1 1574   3.092   0.697   2.956 -1.9644  0.3073  1.4836
  525SOL    HW2 1575   3.076   0.733   3.120  0.8962 -0.7053 -0.5518
  526SOL     OW 1576   0.489   2.885   0.524  0.2493 -0.1018  0.0943
  526SOL    HW1 1577   0.583   2.887   0.567 -1.6341  1.2365 -0.7919
  526SOL    HW2 1578   0.443   2.795   0.541  0.0571 -0.8434  0.8298
  527SOL     OW 1579   3.404   1.271   1.072  0.1384 -0.4835  0.7566
  527SOL    HW1 1580   3.334   1.311   1.007 -0.1399  0.1726  0.8714
  527SOL    HW2 1581   3.358   1.201   1.132 -3.2848  1.6344  0.2614
  528SOL     OW 1582   1.326   1.548   2.690  0.1744  0.2104 -0.3542
  528SOL    HW1 1583   1.295   1.573   2.594  1.1244 -0.0087  0.6536
  528SOL    HW2 1584   1.283   1.613   2.757 -1.7297  0.9233  0.0440
  529SOL     OW 1585   1.003   1.585   0.545 -0.4449 -0.1174 -0.2108
  529SOL    HW1 1586   1.053   1.597   0.635 -0.2967  0.9133  0.2391
  529SOL    HW2 1587   0.974   1.485   0.540  2.6136 -2.8128  0.6554
  530SOL     OW 1588   1.629   0.641   1.980  0.0453 -0.3708  0.1703
  530SOL    HW1 1589   1.695   0.691   1.921 -1.7920  0.8434  1.5740
  530SOL    HW2 1590   1.676   0.574   2.043 -2.0693 -0.3408 -3.5414
  531SOL     OW 1591   1.300   2.624   0.303 -0.0115 -0.2431  0.0305
  531SOL    HW1 1592   1.308   2.702   0.237  1.7711  0.0567 -0.0667
  531SOL    HW2 1593   1.385   2.619   0.361  0.4433  2.0661  0.1805
  532SOL     OW 1594   3.092   0.984   2.818  0.1369 -0.1156  0.1960
  532SOL    HW1 1595   3.106   0.928   2.903  1.0344 -0.8980 -0.0696
  532SOL    HW2 1596   3.175   1.045   2.803  0.3403  1.4569  0.1932
  533SOL     OW 1597   0.045   0.317   2.471 -0.5045  0.4761 -0.2548
  533SOL    HW1 1598  -0.045   0.334   2.519  1.2903  2.3519  0.2634
  533SOL    HW2 1599   0.042   0.239   2.403 -0.3144  0.1115 -0.9801
  534SOL     OW 1600   2.633   0.235   3.277  0.0502  0.4152 -0.2309
  534SOL    HW1 1601   2.706   0.248   3.348  3.2376 -3.1971 -0.1493
  534SOL    HW2 1602   2.646   0.145   3.230  0.1377 -1.5209  1.0949
  535SOL     OW 1603   0.257   0.437   3.598  0.1008  0.4018 -0.2005
  535SOL    HW1 1604   0.335   0.404   3.657  0.6024  2.8435  0.0717
  535SOL    HW2 1605   0.288   0.451   3.500 -3.0095  1.5855 -1.2913
  536SOL     OW 1606   1.288   2.418   1.327  0.5012  0.2409 -0.6003
  536SOL    HW1 1607   1.209   2.403   1.391 -0.8556  0.6847 -1.1376
  536SOL    HW2 1608   1.282   2.510   1.277 -1.1475 -0.1924 -0.2204
  537SOL     OW 1609   3.256   2.987   1.723  0.1596 -0.3097  0.6611
  537SOL    HW1 1610   3.290   3.057   1.790 -0.6450 -1.8824 -1.3094
  537SOL    HW2 1611   3.196   2.918   1.773  0.5878  2.6589  0.1348
  538SOL     OW 1612   0.752   2.897   0.652  0.4645  0.1336  0.0818
  538SOL    HW1 1613   0.788   2.816   0.706 -2.3181  0.4205  0.0072
  538SOL    HW2 1614   0.811   2.982   0.657 -0.7116  0.6770 -0.0796
  539SOL     OW 1615   2.149   1.524   2.899  0.2908 -0.3338 -0.1617
  539SOL    HW1 1616   2.077   1.490   2.833 -1.3772 -1.1142 -1.1691
  539SOL    HW2 1617   2.204   1.602   2.863 -0.4486  0.3144  0.6412
  540SOL     OW 1618   2.196   0.721   3.372 -0.1215  0.1482 -0.6194
  540SOL    HW1 1619   2.248   0.703   3.460  0.5987  2.4037 -0.8817
  540SOL    HW2 1620   2.178   0.821   3.352  1.7229  0.6161  1.0599
  541SOL     OW 1621   1.295   1.274   2.782  0.0089  0.0193  0.2581
  541SOL    HW1 1622   1.331   1.213   2.708 -2.3041 -0.3007 -1.2818
  541SOL    HW2 1623   1.299   1.373   2.753 -1.0295 -1.1834  0.8174
  542SOL     OW 1624   1.716   3.017   2.165 -0.1276 -0.0183 -0.0599
  542SOL    HW1 1625   1.615   3.020   2.152 -1.1453 -0.2224  3.2357
  542SOL    HW2 1626   1.768   3.051   2.083  0.0947 -1.8362 -3.1923
  543SOL     OW 1627   0.584   3.299   3.566 -0.1073  0.3799 -0.0239
  543SOL    HW1 1628   0.643   3.285   3.482  0.5351  3.2653 -1.0727
  543SOL    HW2 1629   0.490   3.331   3.537 -0.8598  0.5219 -1.9103
  544SOL     OW 1630   0.068   2.391   2.523 -0.6135  0.2371  0.0792
  544SOL    HW1 1631   0.011   2.386   2.609  1.0574  0.3770 -1.0167
  544SOL    HW2 1632   0.135   2.469   2.540 -1.5023  0.9167 -0.8311
  545SOL     OW 1633   1.655   2.205   1.909  0.2003  0.0364 -0.0292
  545SOL    HW1 1634   1.614   2.219   1.814 -1.1092  0.3526  0.4184
  545SOL    HW2 1635   1.589   2.157   1.975 -1.1017  0.1836 -0.9014
  546SOL     OW 1636   3.253   0.281   3.074  0.7020  0.0933 -0.2019
  546SOL    HW1 1637   3.217   0.304   2.981 -0.7157 -1.3426  2.8879
  546SOL    HW2 1638   3.351   0.316   3.081 -0.5702 -0.6378  0.1275
  547SOL     OW 1639   1.894   3.549   0.937  0.1924 -0.3683  0.7712
  547SOL    HW1 1640   1.890   3.590   1.032 -1.4778 -0.4308  1.5843
  547SOL    HW2 1641   1.968   3.477   0.936 -1.2204  1.4819  1.4511
  548SOL     OW 1642   1.599   2.569   0.102  0.1720  0.4619  0.2012
  548SOL    HW1 1643   1.546   2.481   0.102 -1.8254 -1.5862 -1.8927
  548SOL    HW2 1644   1.541   2.651   0.079 -0.6720 -0.3895  0.9482
  549SOL     OW 1645   2.328   0.673   0.031  0.4200  0.1834  0.1588
  549SOL    HW1 1646   2.382   0.593   0.069  0.6615 -0.2097 -3.4728
  549SOL    HW2 1647   2.374   0.762   0.054  0.9739 -1.4711  0.7717
  550SOL     OW 1648   3.019   2.149   1.003 -0.2973 -0.3676 -0.3288
  550SOL    HW1 1649   2.945   2.207   0.963 -1.1434  0.7184  2.1861
  550SOL    HW2 1650   3.084   2.123   0.929 -2.2062 -1.0233 -0.7092
  551SOL     OW 1651   1.337   0.289   1.507  0.5016  0.0446  0.5876
  551SOL    HW1 1652   1.273   0.343   1.565  2.1563 -1.7765  1.0626
  551SOL    HW2 1653   1.282   0.219   1.453  0.5782 -0.9323 -1.4992
  552SOL     OW 1654   0.448   2.159   3.229  0.3951 -0.5452  0.2804
  552SOL    HW1 1655   0.467   2.101   3.146  0.6747 -2.0885 -0.0832
  552SOL    HW2 1656   0.430   2.100   3.312 -2.0647  2.7281 -0.4692
  553SOL     OW 1657   2.990   2.847   0.022 -0.0478 -0.3539  0.0384
  553SOL    HW1 1658   2.899   2.804  -0.002 -3.8299 -0.6790  3.7506
  553SOL    HW2 1659   2.991   2.869   0.123 -1.6615 -1.8903  0.8462
  554SOL     OW 1660   2.325   1.726   1.713  0.7397  0.1726 -0.2766
  554SOL    HW1 1661   2.352   1.695   1.807  2.3205  0.5194 -0.8330
  554SOL    HW2 1662   2.238   1.781   1.722 -0.0884 -4.0727  1.5736
  555SOL     OW 1663   0.661   2.941   2.771  0.1625 -0.4442  0.0989
  555SOL    HW1 1664   0.617   2.900   2.854  0.2798 -1.3499 -1.7519
  555SOL    HW2 1665   0.616   3.032   2.752  0.7049 -1.4551  0.1035
  556SOL     OW 1666   1.663   1.263   1.726 -0.5034 -0.0626  0.5703
  556SOL    HW1 1667   1.700   1.244   1.632 -0.1345 -0.5590 -3.3455
  556SOL    HW2 1668   1.646   1.364   1.741 -0.9533  0.5207 -2.4353
  557SOL     OW 1669   1.718   3.464   1.363  0.0260 -0.5715 -0.2153
  557SOL    HW1 1670   1.737   3.368   1.327  0.7938 -1.2114 -0.7422
  557SOL    HW2 1671   1.671   3.463   1.455  3.1450 -0.6504  0.0140
  558SOL     OW 1672   0.631   0.975   2.764  0.3698  0.2816  0.2304
  558SOL    HW1 1673   0.555   0.907   2.756  2.1931  0.0827 -5.2383
  558SOL    HW2 1674   0.665   0.975   2.861 -2.6571 -3.4236  0.4533
  559SOL     OW 1675   1.112   3.205   0.178  0.1211 -0.1495 -0.2413
  559SOL    HW1 1676   1.093   3.265   0.260 -2.3111 -0.4671 -1.5481
  559SOL    HW2 1677   1.212   3.186   0.162  1.3469  1.9756  0.1336
  560SOL     OW 1678   1.933   2.386   0.445 -0.0871 -0.3121  0.5787
  560SOL    HW1 1679   2.002   2.423   0.379  2.6022  1.9582 -1.0253
  560SOL    HW2 1680   1.842   2.433   0.435 -0.9667 -0.2680  0.0850
  561SOL     OW 1681   1.269   3.447   0.668  0.0130  0.1897 -0.4435
  561SOL    HW1 1682   1.332   3.527   0.660 -0.5902 -2.4393  0.5075
  561SOL    HW2 1683   1.225   3.451   0.761 -1.5523  3.5291  0.9372
  562SOL     OW 1684   0.626   1.232   2.613 -0.7290  0.1515  0.0187
  562SOL    HW1 1685   0.658   1.303   2.682  0.1153 -1.6826  3.3019
  562SOL    HW2 1686   0.626   1.143   2.666  0.5529  0.6651  0.0273
  563SOL     OW 1687   1.434   2.433   2.892 -0.3513  0.3199  0.7634
  563SOL    HW1 1688   1.424   2.427   2.790 -2.5118  1.3518 -0.0888
  563SOL    HW2 1689   1.428   2.339   2.933  0.0748 -2.2098 -0.2057
  564SOL     OW 1690   2.920   0.777   1.426 -0.5802 -0.3728  0.4125
  564SOL    HW1 1691   2.884   0.733   1.341 -1.8578  0.9627 -2.6269
  564SOL    HW2 1692   2.878   0.871   1.439 -2.1992  1.2405 -2.1767
  565SOL     OW 1693   1.710   1.110   0.399 -0.0088 -0.3755 -0.5890
  565SOL    HW1 1694   1.682   1.100   0.300  2.2470 -0.6631 -1.6338
  565SOL    HW2 1695   1.647   1.171   0.454  0.7837  3.2064  1.6682
  566SOL     OW 1696   2.847   3.216   3.409  0.3092  0.1678  0.5009
  566SOL    HW1 1697   2.921   3.146   3.395  3.6065 -0.4803  0.2656
  566SOL    HW2 1698   2.761   3.165   3.430  0.8965  0.6941 -1.4855
  567SOL     OW 1699   2.229   0.910   1.214 -0.5890 -0.4695  0.2853
  567SOL    HW1 1700   2.158   0.948   1.279 -0.3164 -1.0428 -0.0209
  567SOL    HW2 1701   2.259   0.816   1.241  2.5600 -0.0713 -0.7316
  568SOL     OW 1702   1.349   1.246   3.080  0.1288  0.4368  0.2916
  568SOL    HW1 1703   1.343   1.334   3.135  2.1495  0.0429 -1.4143
  568SOL    HW2 1704   1.342   1.257   2.978 -0.5718 -0.3158  2.8354
  569SOL     OW 1705   2.475   1.910   0.946 -0.7503  0.0571  0.0789
  569SOL    HW1 1706   2.405   1.841   0.915  0.7196 -2.1801  1.4606
  569SOL    HW2 1707   2.555   1.866   0.996 -1.2130 -0.2107 -0.1236
  570SOL     OW 1708   2.977   3.011   2.684  0.3211  0.0973 -0.1147
  570SOL    HW1 1709   2.900   3.070   2.722  0.2985  0.8114 -0.2707
  570SOL    HW2 1710   2.993   3.035   2.586  0.2385 -2.8973  0.0494
  571SOL     OW 1711   0.006   2.411   1.955 -0.1863 -0.0569  0.1941
  571SOL    HW1 1712  -0.066   2.414   1.882 -0.2242 -3.8531  0.2161
  571SOL    HW2 1713  -0.038   2.395   2.047 -1.2833  1.7008  0.8254
  572SOL     OW 1714   1.244   2.602   3.031  0.0816  0.3969 -0.6005
  572SOL    HW1 1715   1.285   2.697   3.038  1.4158  1.9751 -0.7528
  572SOL    HW2 1716   1.315   2.537   2.994 -0.2421  0.7957  0.4347
  573SOL     OW 1717   1.834   2.711   1.630 -0.1663  0.5079  0.4032
  573SOL    HW1 1718   1.745   2.722   1.681 -0.4061  0.5802  0.0882
  573SOL    HW2 1719   1.905   2.680   1.697  1.0525 -2.6179 -1.6272
  574SOL     OW 1720   1.353   3.265   1.779 -0.2923  0.1862  0.1497
  574SOL    HW1 1721   1.259   3.271   1.735  1.4710  1.3196 -2.1977
  574SOL    HW2 1722   1.347   3.285   1.880 -0.1603  0.7013  0.9977
  575SOL     OW 1723   0.806   0.618   1.069 -0.5531  0.0723 -0.1944
  575SOL    HW1 1724   0.882   0.651   1.009 -1.8189  0.7050  0.5134
  575SOL    HW2 1725   0.829   0.631   1.169  3.2201  0.4248 -0.2214
  576SOL     OW 1726   2.541   0.720   1.721 -0.0117  0.2326  0.0942
  576SOL    HW1 1727   2.495   0.796   1.772  0.1345  0.3261 -1.4158
  576SOL    HW2 1728   2.603   0.761   1.648 -1.9077 -1.9252 -0.7596
  577SOL     OW 1729   2.352   0.168   3.449 -0.3851  0.5894  0.0798
  577SOL    HW1 1730   2.432   0.203   3.393  3.1041 -1.5453  2.6415
  577SOL    HW2 1731   2.268   0.181   3.392  1.5439  0.8144  2.4596
  578SOL     OW 1732   1.987   2.220   2.332  0.3994 -0.8884  0.7494
  578SOL    HW1 1733   1.983   2.118   2.330  0.8575 -1.1611  0.6114
  578SOL    HW2 1734   1.963   2.256   2.238  1.0344  1.1520  2.6512
  579SOL     OW 1735   1.024   1.898   1.181  0.6710  0.2251 -0.1741
  579SOL    HW1 1736   1.075   1.986   1.181 -0.5576  1.5553  1.1210
  579SOL    HW2 1737   0.954   1.890   1.105 -1.9457  1.1319 -0.0413
  580SOL     OW 1738   1.383   0.065   3.470  0.0284 -0.0547 -0.1399
  580SOL    HW1 1739   1.330   0.016   3.545 -0.9530  0.9193  1.0437
  580SOL    HW2 1740   1.451   0.136   3.505  1.5803 -2.1189  0.4069
  581SOL     OW 1741   1.363   1.069   2.031 -0.1272  0.3130  0.0533
  581SOL    HW1 1742   1.404   0.992   2.086 -2.0727 -2.2996  0.6253
  581SOL    HW2 1743   1.390   1.063   1.932  0.7757 -2.0561  0.6213
  582SOL     OW 1744   0.363   0.386   1.125  0.2302  0.1155  0.0693
  582SOL    HW1 1745   0.346   0.479   1.082  0.8806 -1.2843 -0.3231
  582SOL    HW2 1746   0.462   0.360   1.119  1.8915  0.0878 -0.2260
  583SOL     OW 1747   0.935   2.307   2.097 -0.3918 -0.2596  0.2388
  583SOL    HW1 1748   0.915   2.211   2.130 -1.2017 -3.8484 -0.5580
  583SOL    HW2 1749   1.017   2.306   2.036 -0.8105 -0.8906  0.0746
  584SOL     OW 1750   2.995   2.893   0.361 -0.1067 -0.1394 -0.4226
  584SOL    HW1 1751   3.085   2.938   0.384 -0.1323  0.0102  3.2915
  584SOL    HW2 1752   2.925   2.930   0.428  0.3430  1.3729 -0.3278
  585SOL     OW 1753   2.696   0.677   3.352 -0.8174  1.1233  0.0026
  585SOL    HW1 1754   2.684   0.627   3.441  0.6262  1.6883 -1.0459
  585SOL    HW2 1755   2.653   0.622   3.276  0.2645  0.0465 -2.6405
  586SOL     OW 1756   0.572   1.560   0.316  0.5297  0.8765 -0.2548
  586SOL    HW1 1757   0.632   1.632   0.359 -0.1861 -5.0619  2.2936
  586SOL    HW2 1758   0.475   1.597   0.322 -0.9547 -1.3921 -2.5991
  587SOL     OW 1759   2.064   2.420   1.502  0.3367 -0.0634 -0.2238
  587SOL    HW1 1760   2.080   2.390   1.404  0.8379  0.3251  0.3252
  587SOL    HW2 1761   1.988   2.492   1.510  0.5642 -0.5846  0.0819
  588SOL     OW 1762   0.620   0.770   1.496  0.7407  0.0502  0.6418
  588SOL    HW1 1763   0.709   0.744   1.451  0.7793 -0.7657 -3.3617
  588SOL    HW2 1764   0.548   0.796   1.428 -0.4109 -0.4329  4.9634
  589SOL     OW 1765   2.417   3.415   0.959  0.5245 -0.7008  0.5137
  589SOL    HW1 1766   2.437   3.439   0.860 -0.0733 -2.7508 -1.0662
  589SOL    HW2 1767   2.318   3.385   0.966  0.6008  0.8045  1.1372
  590SOL     OW 1768   2.026   1.170   0.472  0.0406  0.3157 -0.7682
  590SOL    HW1 1769   2.096   1.140   0.403 -1.4223  0.7601  2.2773
  590SOL    HW2 1770   1.930   1.141   0.449  2.4873  0.1115 -0.6721
  591SOL     OW 1771   2.728   2.410   2.370 -0.4427 -0.2458 -0.4198
  591SOL    HW1 1772   2.805   2.345   2.346 -1.0200  1.5073  3.6092
  591SOL    HW2 1773   2.771   2.502   2.381 -0.1822 -0.4920 -0.1671
  592SOL     OW 1774   1.570   2.329   1.376 -0.3734 -0.0711 -0.7931
  592SOL    HW1 1775   1.611   2.257   1.316 -1.4445  1.6369 -0.7801
  592SOL    HW2 1776   1.476   2.360   1.348  0.4224  0.3226 -1.8179
  593SOL     OW 1777   0.659   3.267   0.917 -0.3072 -0.0082 -0.2556
  593SOL    HW1 1778   0.761   3.252   0.928  2.5938  0.5248  0.8627
  593SOL    HW2 1779   0.625   3.321   0.999 -1.5387 -3.2831  0.8759
  594SOL     OW 1780   3.344   1.154   2.757  0.4328  0.3274  0.2457
  594SOL    HW1 1781   3.367   1.219   2.681  0.2099 -0.0997  1.2056
  594SOL    HW2 1782   3.415   1.079   2.769  1.0953 -0.0599 -1.1723
  595SOL     OW 1783   3.517   3.529   0.707  0.1724 -0.3403  0.5247
  595SOL    HW1 1784   3.594   3.512   0.641 -0.8775  0.0688  1.2535
  595SOL    HW2 1785   3.537   3.616   0.760  1.7517 -0.5779 -2.1686
  596SOL     OW 1786   0.003   0.658   1.689 -0.9804  0.1841  0.1749
  596SOL    HW1 1787   0.023   0.745   1.741 -2.7460 -0.1419 -0.1850
  596SOL    HW2 1788  -0.093   0.624   1.711  0.1994 -2.9642 -3.2075
  597SOL     OW 1789   3.087   1.411   0.459 -0.5689 -0.5336  0.3401
  597SOL    HW1 1790   3.158   1.335   0.459 -0.6919 -3.2292  0.3835
  597SOL    HW2 1791   2.993   1.373   0.440 -0.4476 -0.3329  0.1018
  598SOL     OW 1792   0.704   0.432   2.434  0.3992 -0.3527  0.4549
  598SOL    HW1 1793   0.697   0.523   2.387 -0.8553 -0.8776  1.0057
  598SOL    HW2 1794   0.618   0.415   2.488  1.3389 -0.3495  0.6919
  599SOL     OW 1795   2.961   2.071   0.215 -0.1088  0.0084 -0.6272
  599SOL    HW1 1796   2.941   2.166   0.181 -0.9239 -1.6390  1.0473
  599SOL    HW2 1797   3.028   2.079   0.294 -1.1002 -4.6670  1.4799
  600SOL     OW 1798   0.994   1.003   0.186  0.0153  0.4002  0.4615
  600SOL    HW1 1799   1.084   1.046   0.155  0.9692 -0.0359  2.3569
  600SOL    HW2 1800   0.915   1.065   0.165  1.2906  1.5648 -0.7678
  601SOL     OW 1801   1.607   1.093   0.124 -0.6525  0.0101  0.2029
  601SOL    HW1 1802   1.521   1.148   0.115 -1.3378  0.1415 -0.4712
  601SOL    HW2 1803   1.596   1.001   0.081 -0.2947  1.9873 -0.9201
  602SOL     OW 1804   1.177   3.590   1.970 -0.1091 -0.1989  0.6773
  602SOL    HW1 1805   1.214   3.685   1.985  1.6381 -1.7429 -2.4249
  602SOL    HW2 1806   1.114   3.586   1.887 -1.8988  2.2145 -0.1104
  603SOL     OW 1807   1.116   3.284   2.775  0.3000  0.1845  0.3487
  603SOL    HW1 1808   1.198   3.342   2.797 -0.1691 -2.7875  0.0222
  603SOL    HW2 1809   1.121   3.254   2.677  0.9532 -0.5205 -1.1572
  604SOL     OW 1810   0.035   0.079   2.301 -0.2626  0.4352  0.5310
  604SOL    HW1 1811   0.083   0.003   2.353 -2.4850  2.2016  0.2536
  604SOL    HW2 1812  -0.052   0.048   2.257 -0.7659 -1.1570  0.8925
  605SOL     OW 1813   3.067   3.252   1.908  0.0053  0.6918 -0.8400
  605SOL    HW1 1814   3.020   3.180   1.961  1.4993 -0.0788  1.7579
  605SOL    HW2 1815   3.170   3.247   1.920 -2.7109 -1.1532  1.9453
  606SOL     OW 1816   0.056   2.210   2.952  0.9526  0.1627  0.4252
  606SOL    HW1 1817   0.061   2.124   3.007  0.5980 -3.8672 -0.7829
  606SOL    HW2 1818   0.117   2.284   2.992 -0.2549 -3.3234 -0.9069
  607SOL     OW 1819   0.956   0.126   0.768  0.0139 -0.4018  0.1254
  607SOL    HW1 1820   0.937   0.207   0.708 -0.0435  3.1677  0.1725
  607SOL    HW2 1821   0.999   0.148   0.858 -2.3387  0.3164 -1.1576
  608SOL     OW 1822   1.893   2.086   2.881 -0.1585  0.4636 -0.2657
  608SOL    HW1 1823   1.879   1.993   2.838 -0.7844 -1.6230  1.2364
  608SOL    HW2 1824   1.940   2.150   2.814  1.3975  2.2654  1.4813
  609SOL     OW 1825   3.547   0.361   1.478  0.5293  0.3005  0.7000
  609SOL    HW1 1826   3.618   0.431   1.446 -1.1318  0.3238  1.0036
  609SOL    HW2 1827   3.587   0.308   1.555  1.5791  2.4317  2.0769
  610SOL     OW 1828   1.060   2.827   3.587  0.1131  0.3478 -0.0627
  610SOL    HW1 1829   1.013   2.853   3.501 -3.0470 -0.5616 -0.3561
  610SOL    HW2 1830   1.015   2.875   3.668  1.1711 -0.3067  1.2887
  611SOL     OW 1831   2.248   1.577   0.583 -0.1981  0.5682  0.4035
  611SOL    HW1 1832   2.286   1.640   0.510  1.0519  0.5989  1.0178
  611SOL    HW2 1833   2.158   1.547   0.539  1.0093 -0.7233 -1.8331
  612SOL     OW 1834   1.172   3.070   2.954  0.3543 -0.6319  0.0821
  612SOL    HW1 1835   1.153   3.152   2.893  1.4883  0.7778 -0.7620
  612SOL    HW2 1836   1.101   2.996   2.943  0.1652  1.0609 -0.3606
  613SOL     OW 1837   1.360   2.353   0.129  0.3008  0.7945 -0.2931
  613SOL    HW1 1838   1.306   2.419   0.187  1.8821 -1.3251  1.1359
  613SOL    HW2 1839   1.303   2.333   0.045  1.8728 -0.8140  0.5512
  614SOL     OW 1840   3.075   2.779   1.869 -0.4793  0.4529 -0.8261
  614SOL    HW1 1841   3.061   2.725   1.784  0.3674 -2.1555  0.0678
  614SOL    HW2 1842   3.038   2.733   1.954 -1.0209  2.1131  0.6120
  615SOL     OW 1843   2.938   1.494   0.054  0.1927  0.0915 -0.3601
  615SOL    HW1 1844   2.964   1.524  -0.041  1.1955  2.2016 -1.4300
  615SOL    HW2 1845   2.885   1.407   0.056  1.0937 -1.4834 -0.0539
  616SOL     OW 1846   1.921   0.049   0.629 -0.3682 -0.1596  0.5007
  616SOL    HW1 1847   1.887   0.004   0.716 -1.0836 -0.9011 -1.3833
  616SOL    HW2 1848   2.024   0.043   0.625 -1.9380 -0.0579 -1.0092
  617SOL     OW 1849   0.564   1.743   3.267 -0.6220  0.7171  0.0528
  617SOL    HW1 1850   0.546   1.799   3.182 -1.6157  1.4469  0.1813
  617SOL    HW2 1851   0.663   1.715   3.273 -0.6871  0.2865  0.1966
  618SOL     OW 1852   0.569   0.852   2.076 -0.7532  0.2521  0.5279
  618SOL    HW1 1853   0.466   0.850   2.072 -0.1666 -1.1328  1.1724
  618SOL    HW2 1854   0.605   0.811   1.989  0.4345 -1.7384 -0.8361
  619SOL     OW 1855   3.314   1.132   2.367 -0.1063 -0.4531 -0.6379
  619SOL    HW1 1856   3.357   1.201   2.431 -1.7262  2.5115  0.3472
  619SOL    HW2 1857   3.309   1.040   2.409  1.0836  1.8877  3.3275
  620SOL     OW 1858   2.548   1.098   3.545  0.2791 -0.6759  0.0926
  620SOL    HW1 1859   2.597   1.052   3.468 -0.9487 -1.7491 -0.4350
  620SOL    HW2 1860   2.458   1.139   3.516  2.2550  4.2389 -1.7146
  621SOL     OW 1861   2.847   3.524   1.437  0.6705 -0.5171 -0.4056
  621SOL    HW1 1862   2.924   3.484   1.492 -1.2576 -2.0466 -1.1925
  621SOL    HW2 1863   2.762   3.537   1.493 -0.7197  2.9106 -2.2899
  622SOL     OW 1864   1.999   0.650   2.428 -0.0825 -0.8072 -0.0277
  622SOL    HW1 1865   1.999   0.569   2.363  0.9628  2.8422  0.1447
  622SOL    HW2 1866   1.916   0.707   2.403 -0.6345 -0.5027  3.9198
  623SOL     OW 1867   1.780   1.092   2.819 -0.8159 -0.2149  0.2905
  623SOL    HW1 1868   1.874   1.112   2.777  0.7191 -0.0407 -0.9991
  623SOL    HW2 1869   1.776   1.115   2.921  1.2254  0.8698 -0.6048
  624SOL     OW 1870   2.216   0.056   0.626  0.5616 -0.1869 -0.6230
  624SOL    HW1 1871   2.229   0.105   0.537  0.9733 -2.1307  1.1431
  624SOL    HW2 1872   2.286  -0.019   0.640 -4.4674 -2.2181  0.3509
  625SOL     OW 1873   0.801   1.793   0.467 -0.2774  0.0453  0.0567
  625SOL    HW1 1874   0.869   1.717   0.482  0.7504 -0.2021  0.0937
  625SOL    HW2 1875   0.807   1.864   0.541 -0.4270 -2.6274  0.3571
  626SOL     OW 1876   1.931   1.420   2.697 -0.2827 -0.1495 -0.9934
  626SOL    HW1 1877   1.944   1.455   2.602 -1.5190  1.5510 -0.3318
  626SOL    HW2 1878   1.832   1.442   2.724 -1.3178 -0.7021  2.3382
  627SOL     OW 1879   0.952   0.645   2.153  0.0030  0.2862  0.6184
  627SOL    HW1 1880   1.031   0.693   2.199  1.4115  2.3180  0.0419
  627SOL    HW2 1881   0.863   0.661   2.203  2.3827  2.0148 -1.3012
  628SOL     OW 1882   2.460   0.969   2.661  0.2355 -0.9148 -0.4488
  628SOL    HW1 1883   2.381   0.920   2.615  0.0660  1.1413  1.0741
  628SOL    HW2 1884   2.540   0.978   2.597  1.3932  1.0921 -1.6351
  629SOL     OW 1885   0.910   1.603   3.545  0.3382  0.6197 -0.3268
  629SOL    HW1 1886   0.894   1.634   3.448 -2.3104  0.7748 -0.3529
  629SOL    HW2 1887   0.828   1.555   3.586 -1.6370  0.7803  0.1937
  630SOL     OW 1888   1.610   0.587   2.640 -0.3275  0.3920  0.5708
  630SOL    HW1 1889   1.599   0.689   2.634  0.6181 -1.1454  1.7953
  630SOL    HW2 1890   1.699   0.556   2.683  1.2598  0.2925  0.3455
  631SOL     OW 1891   3.050   0.870   1.033  1.0880  0.4232 -0.8539
  631SOL    HW1 1892   3.008   0.792   1.087 -0.3298  1.2933 -1.1147
  631SOL    HW2 1893   2.977   0.926   0.983 -0.8623  1.3330 -0.5459
  632SOL     OW 1894   3.199   2.083   0.807 -0.5803 -0.0875 -0.0312
  632SOL    HW1 1895   3.188   2.005   0.742 -0.2206 -0.3611  0.4725
  632SOL    HW2 1896   3.276   2.146   0.776 -0.1185 -2.1946  2.1986
  633SOL     OW 1897   0.830   1.535   0.888  0.9736  0.3169  0.0089
  633SOL    HW1 1898   0.821   1.478   0.973  1.2906 -1.9338  0.4478
  633SOL    HW2 1899   0.806   1.481   0.802  1.0359 -1.0509 -0.5801
  634SOL     OW 1900   1.812   3.562   0.299 -0.4643 -0.1727 -0.0231
  634SOL    HW1 1901   1.724   3.509   0.294  0.1460 -2.5826  3.2223
  634SOL    HW2 1902   1.835   3.595   0.395  1.3857  0.3337 -0.2533
  635SOL     OW 1903   2.330   0.318   2.044 -0.4084  0.1174 -0.6056
  635SOL    HW1 1904   2.367   0.303   1.950 -0.8205  1.6891  1.4709
  635SOL    HW2 1905   2.368   0.405   2.084 -1.5637 -0.1594  0.0896
  636SOL     OW 1906   1.600   0.778   0.800  0.7482  0.7219 -0.6512
  636SOL    HW1 1907   1.543   0.860   0.822  1.6435  0.8828  0.4632
  636SOL    HW2 1908   1.669   0.770   0.875 -0.1540 -1.5340  0.3244
  637SOL     OW 1909   2.319   1.714   3.442 -0.1419 -0.2173 -0.4239
  637SOL    HW1 1910   2.326   1.767   3.353 -1.0675  0.8001 -0.1801
  637SOL    HW2 1911   2.221   1.711   3.475 -3.0007  1.4587 -1.7407
  638SOL     OW 1912   1.059   0.005   3.135  0.6991  0.1429  0.4367
  638SOL    HW1 1913   1.060  -0.091   3.176  1.4864  0.8383 -1.0098
  638SOL    HW2 1914   0.992   0.008   3.055 -0.3100  0.4538  0.8086
  639SOL     OW 1915   1.273   2.404   1.707 -0.1128  0.6372  0.5518
  639SOL    HW1 1916   1.199   2.395   1.637 -1.5286 -0.1885 -0.1818
  639SOL    HW2 1917   1.352   2.342   1.685 -2.2268  0.6279  1.5728
  640SOL     OW 1918   0.513   0.164   3.347 -0.1024 -0.2115 -0.2055
  640SOL    HW1 1919   0.438   0.123   3.404  0.5816  2.1268  0.4290
  640SOL    HW2 1920   0.533   0.110   3.261  2.9418 -0.1492 -0.6303
  641SOL     OW 1921   0.431   0.787   0.359 -0.0425 -0.4767 -0.3157
  641SOL    HW1 1922   0.334   0.750   0.362 -2.0818  1.2471  0.2813
  641SOL    HW2 1923   0.432   0.889   0.378 -0.6728  1.5927  0.3304
  642SOL     OW 1924   0.362   1.935   1.320 -0.6275 -0.1998 -0.1801
  642SOL    HW1 1925   0.399   2.029   1.336  2.2430 -1.5739 -1.0982
  642SOL    HW2 1926   0.398   1.894   1.232  0.4162  2.0012  0.0780
  643SOL     OW 1927   0.967   2.074   3.185 -0.1163  0.5944  0.4625
  643SOL    HW1 1928   0.897   2.141   3.222 -0.0406  0.4153  0.1888
  643SOL    HW2 1929   1.060   2.099   3.224  1.3825  0.5399 -2.0818
  644SOL     OW 1930   1.812   2.809   0.495 -0.2169 -0.1069 -0.3188
  644SOL    HW1 1931   1.904   2.810   0.449 -0.7488  0.9398 -0.0946
  644SOL    HW2 1932   1.819   2.797   0.596  0.6710 -1.5999  1.5959
  645SOL     OW 1933   1.205   2.717   1.791  0.0490  0.1908 -0.2044
  645SOL    HW1 1934   1.226   2.619   1.770 -2.1754 -3.1014  1.5525
  645SOL    HW2 1935   1.266   2.785   1.744 -0.3767 -0.5027 -2.5740
  646SOL     OW 1936   0.606   2.978   0.042  0.1781  0.0626  0.1064
  646SOL    HW1 1937   0.699   2.957   0.086 -2.1108  2.2586  0.5762
  646SOL    HW2 1938   0.593   3.076   0.013  1.1157 -0.3763 -0.0168
  647SOL     OW 1939   0.154   3.512   2.464  0.2410 -0.3370 -0.6964
  647SOL    HW1 1940   0.098   3.509   2.550 -0.7431  0.4498  0.5231
  647SOL    HW2 1941   0.254   3.494   2.485  0.9091 -1.9837 -0.3838
  648SOL     OW 1942   3.011   1.210   1.295 -0.0283  0.2358 -0.0118
  648SOL    HW1 1943   3.091   1.153   1.266  0.0573  0.8103  0.1947
  648SOL    HW2 1944   2.938   1.154   1.339  1.9292  1.4569 -3.6483
  649SOL     OW 1945   2.517   3.112   3.231  0.2059 -0.4399  0.2331
  649SOL    HW1 1946   2.544   3.082   3.326  2.0842 -0.9142  1.0500
  649SOL    HW2 1947   2.504   3.215   3.223  0.4907  0.8507 -0.3407
  650SOL     OW 1948   3.253   2.565   2.241 -0.2716 -0.4434 -0.7974
  650SOL    HW1 1949   3.310   2.480   2.262 -1.3073  1.2544 -0.6416
  650SOL    HW2 1950   3.296   2.627   2.172  0.2955  0.5232 -0.6827
  651SOL     OW 1951   1.245   2.111   3.279  0.0878 -0.1246  0.6257
  651SOL    HW1 1952   1.306   2.147   3.203  1.6615 -1.3447 -0.7972
  651SOL    HW2 1953   1.290   2.028   3.323  0.0008  0.2713 -2.4433
  652SOL     OW 1954   0.568   0.090   2.592 -0.2088  0.4583  0.0610
  652SOL    HW1 1955   0.533   0.187   2.590  3.5968 -2.6198 -0.8271
  652SOL    HW2 1956   0.644   0.084   2.662 -0.8006 -2.0256 -0.3918
  653SOL     OW 1957   2.345   2.156   0.948  0.4315 -0.1241  0.2952
  653SOL    HW1 1958   2.393   2.066   0.954  1.1294 -0.6697  4.6754
  653SOL    HW2 1959   2.392   2.230   1.001  1.0674  0.2954 -0.3878
  654SOL     OW 1960   2.702   3.284   2.499  0.0882  0.3944 -0.2365
  654SOL    HW1 1961   2.646   3.287   2.585  1.0962 -2.3348  0.5734
  654SOL    HW2 1962   2.721   3.382   2.474 -0.1330 -0.4422  0.0339
  655SOL     OW 1963   2.850   2.526   1.118 -0.5531  0.3385  0.0022
  655SOL    HW1 1964   2.808   2.614   1.153 -1.1560  2.9965  0.3430
  655SOL    HW2 1965   2.779   2.467   1.073 -1.0672 -2.0708  0.4332
  656SOL     OW 1966   3.170   1.793   3.395 -0.2668 -0.1998 -0.3293
  656SOL    HW1 1967   3.203   1.866   3.331 -0.4074  1.6489 -0.5769
  656SOL    HW2 1968   3.211   1.806   3.488 -0.7697 -1.1204 -1.5328
  657SOL     OW 1969   0.080   1.447   0.762  0.1778  0.0381 -0.7812
  657SOL    HW1 1970   0.005   1.395   0.715  0.0268  0.5833  1.1918
  657SOL    HW2 1971   0.055   1.482   0.856  2.4409 -3.0247  1.0614
  658SOL     OW 1972   1.366   1.960   1.570  0.3839 -0.6449  0.3603
  658SOL    HW1 1973   1.409   1.918   1.487 -1.9654  2.6519 -0.5436
  658SOL    HW2 1974   1.264   1.959   1.563 -0.8525 -0.0560  0.2656
  659SOL     OW 1975   1.493   0.111   1.686  0.3129 -0.1629 -0.1923
  659SOL    HW1 1976   1.508   0.166   1.773 -1.4511 -1.3499 -1.0140
  659SOL    HW2 1977   1.442   0.162   1.611  3.1807 -1.8086  0.3269
  660SOL     OW 1978   2.980   0.527   0.826  0.7144  0.0096 -0.2745
  660SOL    HW1 1979   2.901   0.586   0.858 -0.0491 -3.1383 -1.2222
  660SOL    HW2 1980   3.023   0.564   0.741  1.0111  0.9141  0.9609
  661SOL     OW 1981   0.621   2.250   0.410 -0.0686  0.3455 -1.2154
  661SOL    HW1 1982   0.650   2.163   0.364 -1.4375  0.2239 -0.7774
  661SOL    HW2 1983   0.597   2.327   0.346 -1.5787 -0.4020 -1.2450
  662SOL     OW 1984   2.665   0.992   2.461 -0.0750 -0.2622 -0.3509
  662SOL    HW1 1985   2.708   0.900   2.439 -0.9757 -1.7376  0.8733
  662SOL    HW2 1986   2.619   1.031   2.378 -1.6108 -0.2222 -3.0740
  663SOL     OW 1987   2.099   1.663   1.269 -0.0387 -0.4184  0.1450
  663SOL    HW1 1988   2.133   1.584   1.210 -1.9555  0.4911 -1.3458
  663SOL    HW2 1989   2.179   1.710   1.315  3.8744 -0.2381  0.0734
  664SOL     OW 1990   0.686   3.560   1.413  0.2031  0.4995  0.0481
  664SOL    HW1 1991   0.737   3.647   1.386 -0.6720  0.3658 -1.4765
  664SOL    HW2 1992   0.683   3.555   1.515 -0.3867 -0.6067  0.5065
  665SOL     OW 1993   1.650   0.289   3.405 -0.0574 -0.2695  0.3705
  665SOL    HW1 1994   1.723   0.217   3.392 -3.1930 -2.1549  2.0319
  665SOL    HW2 1995   1.649   0.354   3.325 -1.3797  3.5964 -0.3184
  666SOL     OW 1996   1.062   0.720   2.601  0.4962 -0.5591 -0.1809
  666SOL    HW1 1997   1.028   0.624   2.614 -0.9150  1.2237  0.9621
  666SOL    HW2 1998   0.981   0.779   2.580 -0.0721 -3.0771 -0.0793
  667SOL     OW 1999   1.618   1.567   1.719  0.0800 -0.7423 -0.5273
  667SOL    HW1 2000   1.546   1.625   1.764 -1.8626  4.3443  0.4265
  667SOL    HW2 2001   1.607   1.578   1.617  0.5032  0.4434 -0.5635
  668SOL     OW 2002   0.399   1.302   2.442 -0.0531 -0.2328 -0.3718
  668SOL    HW1 2003   0.480   1.277   2.500 -0.9489  0.4349  0.1421
  668SOL    HW2 2004   0.405   1.393   2.396 -0.9328 -0.7527  0.9647
  669SOL     OW 2005   3.051   2.985   3.378  0.1477 -0.1975  0.3443
  669SOL    HW1 2006   3.017   2.914   3.311 -1.2582 -0.4598  0.2039
  669SOL    HW2 2007   3.054   2.951   3.476  0.9208  1.2577  0.3857
  670SOL     OW 2008   3.071   1.528   2.012 -0.1674 -0.3695  0.2476
  670SOL    HW1 2009   3.167   1.558   1.991  1.0456 -1.4292 -2.0064
  670SOL    HW2 2010   3.071   1.451   2.081 -0.3060  2.4145  1.4134
  671SOL     OW 2011   3.425   2.233   0.700  0.0187 -0.0271  0.7977
  671SOL    HW1 2012   3.414   2.335   0.695  0.4501  0.3427  0.3922
  671SOL    HW2 2013   3.443   2.190   0.609  3.5624 -1.8104  0.9992
  672SOL     OW 2014   1.839   1.122   2.247 -0.0060 -0.0020  0.1137
  672SOL    HW1 2015   1.929   1.150   2.291  0.0098  1.6191  1.0973
  672SOL    HW2 2016   1.847   1.132   2.143  1.7621  2.1037 -1.3840
  673SOL     OW 2017   3.427   2.414   1.764 -0.2012 -0.0566  0.0129
  673SOL    HW1 2018   3.360   2.493   1.773  0.0505  1.2795 -0.5199
  673SOL    HW2 2019   3.396   2.347   1.691 -2.9680  1.7572 -0.1801
  674SOL     OW 2020   0.713   2.428   1.831 -0.1272 -0.0195 -0.8141
  674SOL    HW1 2021   0.784   2.417   1.907  1.7666 -2.1543 -0.6339
  674SOL    HW2 2022   0.630   2.471   1.873 -2.4645 -0.6665 -2.3968
  675SOL     OW 2023   3.392   0.904   1.431  0.1717  0.3333 -0.1671
  675SOL    HW1 2024   3.476   0.943   1.476  2.2417 -0.3249  1.5175
  675SOL    HW2 2025   3.395   0.801   1.424  1.5887  0.4964 -1.3901
  676SOL     OW 2026   3.422   1.043   2.063 -0.1491 -0.8942  0.7388
  676SOL    HW1 2027   3.398   1.071   2.161  0.3714  2.3081 -1.4081
  676SOL    HW2 2028   3.368   0.959   2.039  0.3909 -0.1205  0.9263
  677SOL     OW 2029   2.430   1.335   2.909  0.2996 -0.7650 -0.1817
  677SOL    HW1 2030   2.336   1.378   2.919  1.2604  0.2291 -2.7992
  677SOL    HW2 2031   2.491   1.354   2.990  0.2316  0.8630 -1.0840
  678SOL     OW 2032   2.922   1.720   1.348 -0.8502 -0.3380  0.1041
  678SOL    HW1 2033   2.933   1.647   1.277  1.1839  1.0582 -0.9651
  678SOL    HW2 2034   3.014   1.754   1.381  0.8769  2.8595  1.3352
  679SOL     OW 2035   0.179   3.203   0.021 -0.0109 -0.5609 -0.0770
  679SOL    HW1 2036   0.199   3.124  -0.043  0.6113 -0.2550 -0.6516
  679SOL    HW2 2037   0.183   3.171   0.120 -0.9282 -0.9987  3.5509
  680SOL     OW 2038   0.069   1.926   1.346 -0.0369  0.3856  0.0970
  680SOL    HW1 2039   0.169   1.933   1.326 -2.2786  0.2499 -1.9848
  680SOL    HW2 2040   0.034   2.005   1.402 -0.3384 -0.8700 -0.8280
  681SOL     OW 2041   1.080   0.147   1.032  0.1022  0.1686 -0.1729
  681SOL    HW1 2042   1.027   0.162   1.119 -0.9574  0.5396 -0.4024
  681SOL    HW2 2043   1.175   0.184   1.050  2.3552 -0.0150  1.3174
  682SOL     OW 2044   2.413   2.825   1.910  0.9181  0.3034  0.4248
  682SOL    HW1 2045   2.496   2.777   1.948  0.4658  3.3654 -0.0713
  682SOL    HW2 2046   2.390   2.778   1.821 -0.7586  0.1388  2.3818
  683SOL     OW 2047   3.129   2.110   1.983 -0.2450 -0.0542 -0.1753
  683SOL    HW1 2048   3.096   2.188   1.926  0.2459  0.5587  0.1059
  683SOL    HW2 2049   3.216   2.075   1.943  1.8821  2.0724  2.0022
  684SOL     OW 2050   3.595   1.711   2.122 -0.3561  0.3987 -0.0202
  684SOL    HW1 2051   3.591   1.721   2.224 -0.7001  1.4155  2.4289
  684SOL    HW2 2052   3.694   1.701   2.093  0.9280  1.6607  2.0685
  685SOL     OW 2053   1.637   1.643   0.294  0.1357  0.3164  0.4396
  685SOL    HW1 2054   1.667   1.712   0.364 -1.5049 -0.5820 -1.3773
  685SOL    HW2 2055   1.720   1.597   0.255  0.8251 -0.9662  0.2125
  686SOL     OW 2056   3.367   0.709   2.264  0.4104  0.3287 -0.3323
  686SOL    HW1 2057   3.468   0.689   2.252  1.1942  0.6476  2.3325
  686SOL    HW2 2058   3.315   0.731   2.178 -1.7170  0.8225 -0.1788
  687SOL     OW 2059   1.849   0.065   3.390 -0.1010  0.1220  0.1365
  687SOL    HW1 2060   1.782   0.005   3.338 -2.2746  1.4572 -4.2132
  687SOL    HW2 2061   1.880   0.023   3.479 -0.5700  2.7937 -0.7645
  688SOL     OW 2062   1.452   2.153   3.046  0.5513 -0.0382  0.1755
  688SOL    HW1 2063   1.448   2.061   2.998  0.3939 -0.6625  1.0009
  688SOL    HW2 2064   1.548   2.177   3.074  0.3969 -0.5101 -0.4560
  689SOL     OW 2065   2.604   1.914   1.717  0.6731  0.5105 -0.3108
  689SOL    HW1 2066   2.512   1.866   1.729  1.8243  2.2145 -2.0565
  689SOL    HW2 2067   2.670   1.851   1.670  1.8895 -0.4023  1.7718
  690SOL     OW 2068   2.742   2.520   1.484 -0.5136  0.1656 -0.2787
  690SOL    HW1 2069   2.683   2.498   1.565 -2.9596  1.6857  1.3242
  690SOL    HW2 2070   2.741   2.440   1.419  0.5085 -2.5079  1.3839
  691SOL     OW 2071   0.243   1.969   0.787 -0.0265  0.0937 -0.2053
  691SOL    HW1 2072   0.291   2.041   0.732 -1.3471  0.5227 -4.2574
  691SOL    HW2 2073   0.154   2.008   0.823  1.7549 -1.0350 -1.2463
  692SOL     OW 2074   3.227   3.544   3.449  0.1923  0.5668  0.4871
  692SOL    HW1 2075   3.330   3.548   3.461 -2.6203 -1.3165 -0.9400
  692SOL    HW2 2076   3.206   3.593   3.362 -4.0403 -0.6273 -0.7796
  693SOL     OW 2077   0.363   1.582   2.343 -0.1310 -0.5270  0.0325
  693SOL    HW1 2078   0.330   1.611   2.250 -2.5429  0.6049 -0.9184
  693SOL    HW2 2079   0.300   1.617   2.417  1.4587 -1.1441  2.5720
  694SOL     OW 2080   2.922   0.417   2.366  0.0280  0.0034 -0.1439
  694SOL    HW1 2081   3.024   0.421   2.374 -0.2674  0.1184 -1.2900
  694SOL    HW2 2082   2.890   0.387   2.273 -1.4194 -2.5362  0.5479
  695SOL     OW 2083   1.718   0.880   2.365 -0.0693 -0.3841  0.4475
  695SOL    HW1 2084   1.684   0.897   2.460 -2.6184 -0.1755 -1.0849
  695SOL    HW2 2085   1.767   0.961   2.328 -1.4992  0.7157 -0.6824
  696SOL     OW 2086   2.592   3.385   1.997  0.1999 -1.0951  0.1434
  696SOL    HW1 2087   2.556   3.431   2.082  0.9821  1.8612  0.5282
  696SOL    HW2 2088   2.526   3.403   1.921 -1.8156  1.1400 -2.8775
  697SOL     OW 2089   1.249   0.893   2.377 -0.6629 -0.0310  0.1828
  697SOL    HW1 2090   1.216   0.822   2.444 -1.9780  0.4743  0.8818
  697SOL    HW2 2091   1.327   0.857   2.320  1.7242 -2.8858 -1.3490
  698SOL     OW 2092   2.628   1.954   3.212  0.2039 -0.0471 -0.0170
  698SOL    HW1 2093   2.708   1.914   3.160  1.3620  0.5597 -1.2490
  698SOL    HW2 2094   2.625   1.925   3.311 -1.0517 -0.2562 -0.6177
  699SOL     OW 2095   2.830   1.274   0.372 -0.5971  0.0124 -0.1760
  699SOL    HW1 2096   2.748   1.232   0.416 -0.5744  3.9193  1.5194
  699SOL    HW2 2097   2.822   1.265   0.270 -0.2228 -0.5557  0.5987
  700SOL     OW 2098   1.473   3.606   1.131  0.5890 -0.2404  0.8487
  700SOL    HW1 2099   1.518   3.563   1.049  1.8333  0.0970 -0.1518
  700SOL    HW2 2100   1.517   3.573   1.220  1.3982  3.7963  0.5682
  701SOL     OW 2101   3.452   0.575   0.881  0.3587  0.0501  0.4582
  701SOL    HW1 2102   3.393   0.660   0.876 -1.9519  0.5409 -0.1148
  701SOL    HW2 2103   3.537   0.598   0.935 -0.3769  0.5890  0.6959
  702SOL     OW 2104   1.842   3.049   1.465  0.2601  0.1727 -0.1892
  702SOL    HW1 2105   1.845   2.951   1.501 -2.8654  1.1628  0.3091
  702SOL    HW2 2106   1.867   3.121   1.533  1.8689  1.1169  1.7880
  703SOL     OW 2107   0.084   0.600   1.417  0.0455 -0.0714 -0.2741
  703SOL    HW1 2108   0.054   0.630   1.510  1.5400  1.4834 -2.7133
  703SOL    HW2 2109   0.188   0.609   1.412  1.6339 -2.4385 -0.7539
  704SOL     OW 2110   1.256   3.345   2.085 -0.0150 -0.4987  0.8567
  704SOL    HW1 2111   1.229   3.433   2.040  1.5381  0.7498  0.2904
  704SOL    HW2 2112   1.174   3.295   2.122  1.3627 -2.8222 -3.4674
  705SOL     OW 2113   0.068   2.309   3.589  0.3909  0.4715  0.3702
  705SOL    HW1 2114   0.119   2.252   3.657  0.8905 -0.7796 -1.0332
  705SOL    HW2 2115  -0.025   2.336   3.623  1.0625  0.2573 -1.2219
  706SOL     OW 2116   0.073   0.677   0.379  0.1847 -0.0372 -0.0047
  706SOL    HW1 2117   0.067   0.642   0.281  2.3155 -0.8674  1.4507
  706SOL    HW2 2118   0.023   0.612   0.441 -2.0991 -0.6933 -0.4949
  707SOL     OW 2119   2.315   3.034   2.285 -0.1798  0.1887  0.0837
  707SOL    HW1 2120   2.349   2.943   2.322 -2.3230 -2.0066 -1.0011
  707SOL    HW2 2121   2.366   3.117   2.321 -1.3506  0.8967  3.2956
  708SOL     OW 2122   0.696   3.543   1.736 -0.0344  0.6261  0.0394
  708SOL    HW1 2123   0.693   3.452   1.784 -1.8943 -0.3671  2.9520
  708SOL    HW2 2124   0.643   3.612   1.793  0.5956  1.6159 -0.2855
  709SOL     OW 2125   0.277   0.864   2.071  0.6428  0.1162  0.3881
  709SOL    HW1 2126   0.207   0.885   1.999  0.2108 -0.0310  1.7059
  709SOL    HW2 2127   0.269   0.930   2.150 -1.3868 -3.3800  3.6352
  710SOL     OW 2128   0.292   0.693   0.909  0.2527 -0.5092 -0.1362
  710SOL    HW1 2129   0.215   0.686   0.978 -1.7581  1.8492  0.8540
  710SOL    HW2 2130   0.276   0.775   0.850  1.4406  0.3733  1.8408
  711SOL     OW 2131   2.798   2.749   2.387 -0.0672 -0.0172 -0.1327
  711SOL    HW1 2132   2.816   2.738   2.488  2.2377  1.5471  0.7164
  711SOL    HW2 2133   2.760   2.842   2.372 -1.1988 -1.0749  0.7747
  712SOL     OW 2134   0.213   3.162   2.815 -0.1063 -0.4362 -0.2884
  712SOL    HW1 2135   0.189   3.252   2.860 -1.6247 -0.9025  1.4123
  712SOL    HW2 2136   0.145   3.132   2.746  1.7330 -3.3300 -1.6692
  713SOL     OW 2137   2.755   0.232   0.771  0.0174  0.3728 -0.4037
  713SOL    HW1 2138   2.820   0.303   0.809  0.4575  0.1171 -0.3644
  713SOL    HW2 2139   2.737   0.242   0.670  4.2481 -3.1521  3.7624
  714SOL     OW 2140   2.016   1.648   3.183  0.1057 -0.0090  0.1477
  714SOL    HW1 2141   2.014   1.750   3.188 -1.5574 -1.2043 -2.2009
  714SOL    HW2 2142   2.074   1.619   3.103 -0.6804 -0.8582 -1.9504
  715SOL     OW 2143   0.066   0.705   1.094  0.5435 -0.3674 -0.3890
  715SOL    HW1 2144   0.056   0.666   1.190  1.1971  2.1376  0.0804
  715SOL    HW2 2145   0.051   0.807   1.095  0.7654 -2.3178 -2.4546
  716SOL     OW 2146   0.926   0.827   1.882 -0.0060 -0.0583  0.0932
  716SOL    HW1 2147   0.839   0.793   1.839  0.4104 -1.2652 -0.6226
  716SOL    HW2 2148   0.946   0.775   1.968 -0.2848 -1.9106 -0.2518
  717SOL     OW 2149   1.625   0.944   2.628 -0.1810  0.1147  0.5969
  717SOL    HW1 2150   1.681   0.995   2.697  0.0265 -0.1875  0.7065
  717SOL    HW2 2151   1.538   0.995   2.609 -0.8634  0.2156  3.9953
  718SOL     OW 2152   1.455   0.029   0.616  0.0906  0.4189  0.1606
  718SOL    HW1 2153   1.488   0.120   0.652  0.4519  1.3073  0.5037
  718SOL    HW2 2154   1.454   0.042   0.514 -1.4100  1.7261  1.2568
  719SOL     OW 2155   3.511   3.238   3.220  0.0671 -0.5096  0.2388
  719SOL    HW1 2156   3.418   3.198   3.212  1.3960  2.8484 -1.0161
  719SOL    HW2 2157   3.581   3.168   3.248  1.9612 -0.1641 -0.8619
  720SOL     OW 2158   1.730   0.451   2.168 -0.4850 -0.1112 -0.7870
  720SOL    HW1 2159   1.672   0.437   2.252  1.2445 -0.5528 -1.3098
  720SOL    HW2 2160   1.828   0.432   2.193 -0.8528  2.4349  1.7682
  721SOL     OW 2161   0.127   3.301   1.277 -0.5621  0.8402  0.6213
  721SOL    HW1 2162   0.100   3.398   1.253 -0.5951 -2.6875 -1.9032
  721SOL    HW2 2163   0.046   3.238   1.260 -0.7407  1.9197  1.9175
  722SOL     OW 2164   1.023   1.214   3.263  0.3834  0.7137  0.3326
  722SOL    HW1 2165   0.982   1.281   3.197 -1.9087 -0.0422 -1.0951
  722SOL    HW2 2166   1.050   1.262   3.350  0.8318  0.9598 -2.8674
  723SOL     OW 2167   2.399   1.449   1.537  0.3391 -0.6531 -0.4690
  723SOL    HW1 2168   2.459   1.482   1.459 -2.2807 -2.0328  0.3304
  723SOL    HW2 2169   2.370   1.524   1.602 -1.0457  3.0445 -0.6803
  724SOL     OW 2170   1.068   2.208   0.406 -0.1060 -0.5609  0.2276
  724SOL    HW1 2171   1.126   2.132   0.448 -1.3772 -1.4611  0.3628
  724SOL    HW2 2172   1.051   2.192   0.305  2.0831  2.5687 -0.2165
  725SOL     OW 2173   0.021   0.908   1.832  0.9272  0.3945 -0.1786
  725SOL    HW1 2174   0.010   0.955   1.741  1.1711  0.5445 -1.6820
  725SOL    HW2 2175  -0.046   0.949   1.900  0.4506  1.0512 -0.5467
  726SOL     OW 2176   2.811   1.219   0.072  0.4712 -0.6157 -0.7969
  726SOL    HW1 2177   2.715   1.208   0.038  0.9131 -0.9245 -1.5477
  726SOL    HW2 2178   2.857   1.128   0.073 -3.3565 -0.5536  2.4273
  727SOL     OW 2179   2.585   1.006   2.968  0.6999  0.1394 -0.1277
  727SOL    HW1 2180   2.588   1.109   2.986  0.2209  0.6529  0.4473
  727SOL    HW2 2181   2.549   0.980   2.874 -4.4938  0.2504 -2.0119
  728SOL     OW 2182   2.117   2.245   1.726  0.0750  0.2065 -0.2792
  728SOL    HW1 2183   2.219   2.226   1.720  0.8054  1.6265  0.3052
  728SOL    HW2 2184   2.089   2.301   1.644  0.7662 -2.8222  2.8461
  729SOL     OW 2185   2.158   1.262   2.383 -0.1913  0.6488  0.3280
  729SOL    HW1 2186   2.096   1.344   2.401  0.4925 -0.1026 -1.1627
  729SOL    HW2 2187   2.255   1.292   2.382  2.1836 -2.1071 -1.5603
  730SOL     OW 2188   1.635   0.786   1.312 -0.2933 -0.2920  0.3610
  730SOL    HW1 2189   1.616   0.686   1.328  1.3414  1.4550  0.3020
  730SOL    HW2 2190   1.699   0.793   1.232  0.2687 -0.3788 -0.4292
  731SOL     OW 2191   0.612   0.895   3.583 -0.5191 -0.3766  0.6442
  731SOL    HW1 2192   0.641   0.857   3.493  0.6136 -0.2435  2.6348
  731SOL    HW2 2193   0.617   0.828   3.660 -0.9748 -1.5102  0.9863
  732SOL     OW 2194   0.445   1.134   0.438  0.0779 -0.3348  0.3675
  732SOL    HW1 2195   0.530   1.192   0.425  2.0168 -0.2462 -0.3360
  732SOL    HW2 2196   0.402   1.152   0.530 -0.0101 -0.9849  3.5749
  733SOL     OW 2197   1.573   1.919   2.603 -0.4030  0.2203 -0.1054
  733SOL    HW1 2198   1.503   1.993   2.587 -0.5746  0.7954 -0.2771
  733SOL    HW2 2199   1.606   1.874   2.514  0.9016  2.3237 -3.0501
  734SOL     OW 2200   0.484   2.762   3.521 -0.1182  0.7575 -0.3027
  734SOL    HW1 2201   0.532   2.837   3.573 -2.1785  0.3471 -1.2856
  734SOL    HW2 2202   0.435   2.691   3.577  0.6094 -3.0708 -0.0628
  735SOL     OW 2203   3.216   0.148   1.189  0.1881 -0.5930 -0.6903
  735SOL    HW1 2204   3.248   0.140   1.286 -1.8544  0.0637  0.2973
  735SOL    HW2 2205   3.226   0.242   1.148 -2.7395  1.7318  1.1494
  736SOL     OW 2206   2.314   1.738   2.796 -0.2938  0.5444  0.3133
  736SOL    HW1 2207   2.408   1.710   2.762  3.6968  0.2207  1.1513
  736SOL    HW2 2208   2.325   1.804   2.874 -0.1299 -1.4898  0.4172
  737SOL     OW 2209   0.063   0.939   0.482  0.2777 -0.0326 -0.6703
  737SOL    HW1 2210   0.052   1.006   0.406  0.8220 -1.5735  2.2712
  737SOL    HW2 2211   0.068   0.843   0.444 -1.3243  0.1283 -1.3281
  738SOL     OW 2212   1.060   2.374   1.499 -0.1830 -0.0947  0.6444
  738SOL    HW1 2213   1.023   2.289   1.454  0.2756  1.3821 -0.3055
  738SOL    HW2 2214   0.983   2.440   1.518  0.4747  0.8594 -3.1155
  739SOL     OW 2215   2.138   3.028   2.778  0.2727  0.1018 -0.2254
  739SOL    HW1 2216   2.166   3.048   2.875 -1.5015 -0.2687  2.6048
  739SOL    HW2 2217   2.114   3.114   2.728  1.1945 -0.0997  0.7223
  740SOL     OW 2218   2.715   2.748   1.255  0.9800 -0.0723  0.0052
  740SOL    HW1 2219   2.719   2.699   1.346  0.6488 -2.1659 -0.7672
  740SOL    HW2 2220   2.754   2.843   1.266 -1.2420  0.9686 -0.4084
  741SOL     OW 2221   2.736   0.740   0.131  0.0618  0.0816 -0.6132
  741SOL    HW1 2222   2.732   0.663   0.062  1.5506  1.7509 -2.7165
  741SOL    HW2 2223   2.762   0.698   0.223 -0.8651  2.0503 -2.4170
  742SOL     OW 2224   1.311   2.824   0.117  0.6728  0.4680  0.2082
  742SOL    HW1 2225   1.234   2.818   0.049  2.3626 -0.4846  0.3912
  742SOL    HW2 2226   1.341   2.922   0.129 -0.3912 -1.0401 -2.1178
  743SOL     OW 2227   3.047   1.638   2.447  0.2952 -0.3524  0.3986
  743SOL    HW1 2228   2.996   1.655   2.358 -2.4900  0.0555 -0.0027
  743SOL    HW2 2229   3.030   1.545   2.484  0.7645 -0.8937 -3.0117
  744SOL     OW 2230   3.475   0.194   0.470  0.2999 -0.1644  0.1034
  744SOL    HW1 2231   3.397   0.213   0.532 -0.9161  2.4770 -0.3457
  744SOL    HW2 2232   3.449   0.125   0.398  1.1322 -1.1732  1.2664
  745SOL     OW 2233   3.055   2.104   1.534 -0.3403  0.2523 -0.2958
  745SOL    HW1 2234   3.090   2.006   1.521  1.3539 -3.6436 -0.1642
  745SOL    HW2 2235   2.980   2.116   1.463 -1.1544 -1.4868  0.4099
  746SOL     OW 2236   1.277   1.940   0.513 -0.5973  0.3150 -0.4919
  746SOL    HW1 2237   1.252   1.924   0.612 -0.4516  1.5960  2.8027
  746SOL    HW2 2238   1.256   1.861   0.451  1.5311  0.0630  1.3086
  747SOL     OW 2239   1.378   1.824   1.831 -0.5819  0.1010 -0.5867
  747SOL    HW1 2240   1.398   1.874   1.742 -0.1830  1.4665 -0.5064
  747SOL    HW2 2241   1.303   1.754   1.819  1.3701  0.1064  1.1282
  748SOL     OW 2242   0.322   3.399   3.469  0.4658  0.3040  0.3548
  748SOL    HW1 2243   0.264   3.339   3.531 -0.9705  2.7925  2.9520
  748SOL    HW2 2244   0.316   3.499   3.493  0.9754  0.3810  0.3770
  749SOL     OW 2245   0.298   1.243   3.334 -0.2709  0.5000  0.7521
  749SOL    HW1 2246   0.313   1.170   3.407  1.3148  1.9227  1.9366
  749SOL    HW2 2247   0.335   1.215   3.242 -1.1278  1.0395  3.3146
  750SOL     OW 2248   1.894   1.165   1.934 -0.5086  0.2762 -0.9242
  750SOL    HW1 2249   1.817   1.192   1.873  1.6547  2.1584 -1.0065
  750SOL    HW2 2250   1.956   1.246   1.940  0.9494 -1.2793 -4.1045
  751SOL     OW 2251   3.404   1.054   0.727  0.5839 -0.0897 -0.3066
  751SOL    HW1 2252   3.474   1.002   0.670 -1.1368 -2.5582  2.7959
  751SOL    HW2 2253   3.417   1.155   0.714  2.3655 -0.4646  0.1231
  752SOL     OW 2254   3.336   3.290   1.074  0.4451  0.6838 -0.0428
  752SOL    HW1 2255   3.353   3.392   1.082 -1.4408  0.1807  1.5190
  752SOL    HW2 2256   3.389   3.236   1.144  0.6037 -1.4644 -0.3442
  753SOL     OW 2257   0.816   2.993   1.490 -0.1335  0.2751  0.4668
  753SOL    HW1 2258   0.850   2.926   1.562  1.9019  2.2386  1.0306
  753SOL    HW2 2259   0.835   2.961   1.392  0.3304 -0.6625 -2.4653
  754SOL     OW 2260   3.472   3.172   2.254 -0.1520 -0.3365  0.0164
  754SOL    HW1 2261   3.438   3.252   2.308 -1.0934  3.3795 -1.4304
  754SOL    HW2 2262   3.436   3.085   2.296  0.2771 -1.8649 -1.4589
  755SOL     OW 2263   2.915   0.958   0.025 -0.3810  0.0952  0.1475
  755SOL    HW1 2264   2.999   0.915  -0.014 -0.9213  1.8145 -0.4608
  755SOL    HW2 2265   2.855   0.883   0.063  2.2065 -0.6417 -1.8255
  756SOL     OW 2266   2.143   2.517   0.266 -0.0311 -0.7178 -0.1223
  756SOL    HW1 2267   2.143   2.535   0.164 -0.2008 -0.2222  1.8300
  756SOL    HW2 2268   2.220   2.457   0.300 -0.7108  0.4893 -0.0740
  757SOL     OW 2269   3.099   0.642   0.597 -0.3516  0.9168  0.3059
  757SOL    HW1 2270   3.071   0.738   0.567  0.6928 -1.6830  2.3311
  757SOL    HW2 2271   3.202   0.642   0.605  1.0796 -1.3213 -1.4107
  758SOL     OW 2272   2.529   1.108   2.248 -0.1250 -0.3280 -0.2025
  758SOL    HW1 2273   2.443   1.057   2.218  2.4102 -0.8988 -0.7178
  758SOL    HW2 2274   2.503   1.200   2.285 -0.4189  1.1733 -2.4620
  759SOL     OW 2275   3.137   0.581   1.562  0.3251 -0.1671 -0.3567
  759SOL    HW1 2276   3.061   0.639   1.525  0.5485  2.6198 -0.6878
  759SOL    HW2 2277   3.213   0.566   1.495 -2.5118 -2.6815  0.7962
  760SOL     OW 2278   0.664   1.716   1.688 -0.1017  0.2151  0.1786
  760SOL    HW1 2279   0.573   1.759   1.664 -0.1430  1.4274 -0.1840
  760SOL    HW2 2280   0.656   1.616   1.712  1.0504 -0.8824 -0.9406
  761SOL     OW 2281   0.938   0.738   0.110  0.2829 -0.2475 -0.5567
  761SOL    HW1 2282   0.839   0.717   0.130  0.0864 -2.0273 -1.5027
  761SOL    HW2 2283   0.962   0.834   0.140  0.3821  1.8178  0.4963
  762SOL     OW 2284   0.836   2.101   1.365  0.0716  0.1233  0.0513
  762SOL    HW1 2285   0.885   2.016   1.336  1.7375 -0.4613  1.6067
  762SOL    HW2 2286   0.809   2.098   1.465  1.3761 -0.8886  0.1083
  763SOL     OW 2287   1.489   0.826   2.191  0.0448 -0.0922 -0.1407
  763SOL    HW1 2288   1.517   0.757   2.119 -1.3996  1.1913 -0.2616
  763SOL    HW2 2289   1.563   0.840   2.262  0.2113  0.1673  0.7557
  764SOL     OW 2290   3.518   3.531   3.452  0.1732  0.8571 -0.0790
  764SOL    HW1 2291   3.565   3.524   3.543  0.4131 -1.5991  0.8163
  764SOL    HW2 2292   3.538   3.445   3.397  0.1170  2.0729 -2.1094
  765SOL     OW 2293   0.838   0.047   2.187  0.8086  0.4197 -0.2303
  765SOL    HW1 2294   0.755   0.095   2.223  0.1881  1.1701 -1.0834
  765SOL    HW2 2295   0.883   0.102   2.111 -0.7754  2.0045  0.9948
  766SOL     OW 2296   3.215   2.226   2.658 -0.2537  0.4695 -0.3275
  766SOL    HW1 2297   3.128   2.184   2.696  0.1545  0.1492 -0.0585
  766SOL    HW2 2298   3.303   2.203   2.707  1.0686 -0.0223 -1.6251
  767SOL     OW 2299   1.603   1.462   2.787  0.0090  0.0217  0.4600
  767SOL    HW1 2300   1.599   1.359   2.804 -1.1617  0.7498 -1.7150
  767SOL    HW2 2301   1.516   1.497   2.743  0.9529  1.8131  1.3538
  768SOL     OW 2302   1.745   2.068   0.164  0.5853 -0.2554  0.4487
  768SOL    HW1 2303   1.643   2.064   0.182 -2.7246 -0.7375  1.2574
  768SOL    HW2 2304   1.794   2.069   0.255 -2.1298  0.0240  0.4265
  769SOL     OW 2305   0.470   1.818   1.054 -0.2634 -0.2013  0.1752
  769SOL    HW1 2306   0.411   1.854   0.978  0.0697  0.0904 -1.1719
  769SOL    HW2 2307   0.570   1.826   1.026 -0.3350  0.2742  1.2466
  770SOL     OW 2308   1.947   0.739   2.937 -0.4179 -0.5382  0.4079
  770SOL    HW1 2309   2.008   0.823   2.927  0.0988  0.2920  1.2040
  770SOL    HW2 2310   1.852   0.765   2.969 -0.3327 -0.4417  1.4478
  771SOL     OW 2311   2.968   0.106   2.818 -0.3128  0.0774 -0.7013
  771SOL    HW1 2312   2.919   0.149   2.737  1.4875 -0.9085  1.0225
  771SOL    HW2 2313   2.904   0.084   2.897 -0.8815  0.5217 -1.4031
  772SOL     OW 2314   2.925   1.973   2.506 -0.5455  0.3172 -0.1495
  772SOL    HW1 2315   2.824   1.957   2.501  1.7392  0.1011  4.6396
  772SOL    HW2 2316   2.980   1.888   2.483 -1.6653 -0.4996  0.4149
  773SOL     OW 2317   1.156   1.664   1.767  0.5524 -0.3378  0.0006
  773SOL    HW1 2318   1.167   1.597   1.690  0.3408 -2.4369 -0.9851
  773SOL    HW2 2319   1.072   1.721   1.754  1.0287 -0.8195  1.3535
  774SOL     OW 2320   1.330   0.744   3.357 -0.0620 -0.1371  0.2604
  774SOL    HW1 2321   1.318   0.650   3.315  0.5959  1.4699 -0.2452
  774SOL    HW2 2322   1.246   0.801   3.343 -0.5481 -2.3478 -0.4333
  775SOL     OW 2323   1.672   2.575   0.403  0.3394 -0.9279  0.0381
  775SOL    HW1 2324   1.706   2.667   0.432  1.1229 -1.1403 -1.9934
  775SOL    HW2 2325   1.658   2.582   0.301  0.2361  0.9181 -1.6705
  776SOL     OW 2326   3.525   1.290   1.927  0.7556  0.0408  0.6979
  776SOL    HW1 2327   3.625   1.299   1.949 -1.8781 -0.4115  0.2521
  776SOL    HW2 2328   3.482   1.208   1.970  0.7550 -2.2961  2.2493
  777SOL     OW 2329   2.875   2.718   2.657  0.1212  0.0222 -0.2230
  777SOL    HW1 2330   2.916   2.809   2.682  3.8891  2.4753  1.4365
  777SOL    HW2 2331   2.947   2.644   2.653 -1.9524  0.4578 -0.4411
  778SOL     OW 2332   1.976   1.516   2.439 -0.1341 -0.3586 -0.0457
  778SOL    HW1 2333   1.914   1.527   2.356 -1.3975 -0.6205  1.3973
  778SOL    HW2 2334   2.012   1.605   2.475  0.6414 -1.0302 -0.4081
  779SOL     OW 2335   3.448   1.330   0.636  0.6453 -0.1448  0.4014
  779SOL    HW1 2336   3.407   1.422   0.655 -0.7539 -2.4945  0.4194
  779SOL    HW2 2337   3.426   1.299   0.539  0.6673  0.2502  1.2211
  780SOL     OW 2338   2.454   3.465   3.255 -0.1604  0.3057  0.0876
  780SOL    HW1 2339   2.373   3.504   3.205 -1.2120 -1.0923 -5.2383
  780SOL    HW2 2340   2.447   3.478   3.356 -1.2934 -0.3970 -0.0405
  781SOL     OW 2341   3.186   1.838   1.439  0.3775  0.9222  0.0179
  781SOL    HW1 2342   3.253   1.863   1.365 -0.1591 -2.5233  0.6675
  781SOL    HW2 2343   3.239   1.803   1.521  1.3217 -1.6766  0.3646
  782SOL     OW 2344   3.427   2.675   3.346  0.2261 -0.6557  0.5840
  782SOL    HW1 2345   3.383   2.703   3.435  1.4811  3.8502  1.0228
  782SOL    HW2 2346   3.358   2.665   3.270 -1.3506  1.6049 -0.6490
  783SOL     OW 2347   0.807   1.821   0.935  0.0321 -0.4639  0.2607
  783SOL    HW1 2348   0.800   1.720   0.914  2.1686  4.1648  0.4345
  783SOL    HW2 2349   0.811   1.879   0.851 -3.2910 -3.0337  2.2572
  784SOL     OW 2350   2.688   1.608   0.528 -0.4985  0.3027 -0.1186
  784SOL    HW1 2351   2.713   1.519   0.481 -1.6173 -0.1707 -0.0580
  784SOL    HW2 2352   2.642   1.670   0.458 -0.9285 -1.2198 -0.9783
  785SOL     OW 2353   2.299   3.234   0.506 -0.1639 -0.2329  0.8277
  785SOL    HW1 2354   2.243   3.274   0.430 -1.1789 -3.0489 -0.6347
  785SOL    HW2 2355   2.237   3.185   0.573 -2.7591 -2.8510 -0.3918
  786SOL     OW 2356   0.810   2.344   3.007 -0.2629  0.1470 -0.8216
  786SOL    HW1 2357   0.767   2.267   2.953 -1.0778 -1.1473  0.5394
  786SOL    HW2 2358   0.782   2.334   3.106  2.5084 -2.4912 -1.3057
  787SOL     OW 2359   1.568   0.465   1.356  0.2530 -0.2827 -0.0166
  787SOL    HW1 2360   1.660   0.420   1.358  2.5230  0.1941  0.4194
  787SOL    HW2 2361   1.503   0.409   1.412 -2.4001  2.5080 -1.7996
  788SOL     OW 2362   0.769   1.170   0.096  0.6405  0.3423  0.1978
  788SOL    HW1 2363   0.720   1.093   0.046 -1.8607  0.5163  0.4647
  788SOL    HW2 2364   0.745   1.262   0.056 -1.3801 -2.8909  1.6151
  789SOL     OW 2365   3.329   2.232   1.522  0.9800 -0.6173  0.0804
  789SOL    HW1 2366   3.243   2.185   1.554 -1.1859 -5.0619 -0.0915
  789SOL    HW2 2367   3.318   2.274   1.428 -2.0818 -0.5410 -0.8854
  790SOL     OW 2368   1.676   0.156   2.582 -0.3406 -0.1424 -0.5187
  790SOL    HW1 2369   1.601   0.119   2.644  1.5935  0.9176  1.5240
  790SOL    HW2 2370   1.637   0.236   2.530  0.0978  0.3083 -0.0772
  791SOL     OW 2371   1.174   0.630   0.239 -0.0317  0.8703 -0.2035
  791SOL    HW1 2372   1.211   0.545   0.192  0.1557 -0.9051 -4.2483
  791SOL    HW2 2373   1.090   0.665   0.192 -1.3202 -0.0208 -1.7371
  792SOL     OW 2374   1.526   0.349   1.943 -0.4087 -0.3431 -0.0266
  792SOL    HW1 2375   1.532   0.449   1.915 -0.8996 -0.3567 -0.1391
  792SOL    HW2 2376   1.591   0.330   2.023  1.5475 -2.5147 -0.0311
  793SOL     OW 2377   1.151   3.480   0.973  0.1231  0.1333 -0.0399
  793SOL    HW1 2378   1.109   3.575   0.977 -0.8877  0.4642 -0.7414
  793SOL    HW2 2379   1.216   3.466   1.052  1.2055  0.1057  2.1126
  794SOL     OW 2380   0.768   1.526   2.179  0.3201  0.2461 -0.1546
  794SOL    HW1 2381   0.721   1.435   2.169  0.6995 -3.3683  3.2792
  794SOL    HW2 2382   0.827   1.531   2.265 -0.1158  1.6527  1.2558
  795SOL     OW 2383   0.166   1.656   2.586  0.1185  0.1796  0.7309
  795SOL    HW1 2384   0.079   1.687   2.540  5.9217 -1.5064  0.1540
  795SOL    HW2 2385   0.191   1.720   2.663 -0.4491  0.1055 -0.0168
  796SOL     OW 2386   2.200   1.933   2.063  0.4255 -0.1479 -0.2416
  796SOL    HW1 2387   2.269   2.009   2.076 -1.8820  2.3556  2.0895
  796SOL    HW2 2388   2.127   1.931   2.136 -1.0475  3.2045  0.3512
  797SOL     OW 2389   0.043   0.322   3.049  0.3612 -0.2357  0.0048
  797SOL    HW1 2390   0.068   0.244   2.987  0.8965  4.5434  0.8663
  797SOL    HW2 2391   0.017   0.289   3.141  2.4219 -1.3395  0.7047
  798SOL     OW 2392   3.610   2.715   2.310  0.3124  0.5772 -0.4204
  798SOL    HW1 2393   3.584   2.733   2.209  0.9375 -0.8872 -0.2584
  798SOL    HW2 2394   3.603   2.613   2.332  0.0311 -0.8700  0.3158
  799SOL     OW 2395   3.261   2.736   3.599  0.1443  0.6486 -0.1795
  799SOL    HW1 2396   3.322   2.794   3.659 -1.7079 -0.6692  0.4763
  799SOL    HW2 2397   3.163   2.767   3.615  2.4266 -1.2225 -1.5266
  800SOL     OW 2398   1.235   1.895   0.826 -0.4758  0.2918  0.0536
  800SOL    HW1 2399   1.189   1.983   0.854  0.1156 -0.4631  2.0775
  800SOL    HW2 2400   1.327   1.882   0.871 -1.0248  0.4510 -0.4325
  801SOL     OW 2401   3.296   0.809   0.862 -0.4775  0.1869  0.1031
  801SOL    HW1 2402   3.336   0.896   0.825  1.8423 -0.1655  2.1344
  801SOL    HW2 2403   3.213   0.822   0.922  2.1435 -1.0353  0.5169
  802SOL     OW 2404   3.093   1.853   0.531  0.1496  0.6220  0.5471
  802SOL    HW1 2405   3.109   1.949   0.499 -2.0951 -4.2553 -0.1742
  802SOL    HW2 2406   2.993   1.841   0.553  0.7689  1.3725 -0.0587
  803SOL     OW 2407   2.004   2.257   3.398 -0.3966  0.2746  0.5410
  803SOL    HW1 2408   1.976   2.275   3.300  0.5730  0.2117 -1.5596
  803SOL    HW2 2409   2.095   2.303   3.413  0.4036 -1.0100 -0.5407
  804SOL     OW 2410   2.374   2.301   0.345 -0.3370  0.3436 -0.2939
  804SOL    HW1 2411   2.371   2.239   0.429  4.1889  0.4619  2.1873
  804SOL    HW2 2412   2.407   2.247   0.262 -1.2404 -1.2316 -0.1209
  805SOL     OW 2413   3.420   1.924   3.010  0.1673 -0.2423 -0.0837
  805SOL    HW1 2414   3.365   1.963   3.087 -2.7299  1.9661  2.9226
  805SOL    HW2 2415   3.428   1.990   2.932 -2.0423  0.5971  1.3656
  806SOL     OW 2416   0.377   0.326   0.473  0.1232  0.1584 -0.1272
  806SOL    HW1 2417   0.378   0.381   0.561 -2.5988  0.3837 -0.7840
  806SOL    HW2 2418   0.298   0.260   0.468 -0.2118  2.4168 -1.4905
  807SOL     OW 2419   2.882   1.567   2.957 -0.5847  0.0123  0.0278
  807SOL    HW1 2420   2.813   1.506   3.006 -3.0993  0.2910 -1.5410
  807SOL    HW2 2421   2.960   1.513   2.918 -0.8786 -2.9301 -0.6353
  808SOL     OW 2422   0.159   1.707   0.604 -0.0894 -0.1017  0.1245
  808SOL    HW1 2423   0.141   1.619   0.656  0.4270  1.9314  0.6326
  808SOL    HW2 2424   0.189   1.786   0.662 -1.5759  0.2237  1.8389
  809SOL     OW 2425   2.992   0.643   3.343 -0.5738 -0.3631  0.1778
  809SOL    HW1 2426   3.046   0.703   3.407 -1.7092 -1.9736  1.7284
  809SOL    HW2 2427   2.891   0.663   3.346 -1.5198  0.3461  0.9055
  810SOL     OW 2428   1.077   0.853   0.441  0.2304 -0.0902 -0.0028
  810SOL    HW1 2429   1.121   0.767   0.403  1.3839  0.7273 -1.7080
  810SOL    HW2 2430   1.036   0.912   0.367 -0.8755 -1.4544  0.9909
  811SOL     OW 2431   1.833   3.001   0.935  0.0788 -0.2983 -0.0600
  811SOL    HW1 2432   1.744   3.052   0.938 -0.2878 -0.1792  0.0402
  811SOL    HW2 2433   1.822   2.912   0.882 -1.2335  1.2461  0.1669
  812SOL     OW 2434   0.911   3.121   1.948 -0.0188 -0.1838  0.4152
  812SOL    HW1 2435   0.880   3.023   1.954 -0.1908 -1.5831 -1.0199
  812SOL    HW2 2436   0.960   3.148   2.035  0.7553 -1.9482 -0.9368
  813SOL     OW 2437   1.267   0.342   2.305  0.4434 -0.4022 -0.3739
  813SOL    HW1 2438   1.248   0.246   2.333 -1.9529  0.0281  1.0009
  813SOL    HW2 2439   1.204   0.409   2.354 -0.1720  3.5147 -3.3478
  814SOL     OW 2440   1.564   3.585   3.247 -0.3469 -0.4459 -0.5921
  814SOL    HW1 2441   1.506   3.634   3.317  0.5998  2.0072  1.0012
  814SOL    HW2 2442   1.535   3.487   3.230 -1.8259 -0.7807 -1.0152
  815SOL     OW 2443   0.728   0.715   2.304  0.4330 -0.0965  0.0927
  815SOL    HW1 2444   0.665   0.762   2.238 -2.1430  0.9715 -1.9037
  815SOL    HW2 2445   0.747   0.779   2.381  4.2136  3.4311  0.0823
  816SOL     OW 2446   2.687   0.509   3.598 -0.3652 -0.2810  0.4794
  816SOL    HW1 2447   2.615   0.480   3.666  0.9596 -0.1909  1.4423
  816SOL    HW2 2448   2.749   0.432   3.570  0.7482  0.1196  1.4195
  817SOL     OW 2449   2.104   0.211   3.306  0.2728 -0.3725 -0.1494
  817SOL    HW1 2450   2.090   0.309   3.280 -0.9851 -1.4741  1.5463
  817SOL    HW2 2451   2.020   0.162   3.337 -2.6760  0.8406 -1.0032
  818SOL     OW 2452   2.477   0.461   0.186 -0.6250 -0.2092  0.3876
  818SOL    HW1 2453   2.493   0.361   0.210  1.5823  1.5084 -2.3845
  818SOL    HW2 2454   2.446   0.512   0.271  1.1382 -1.3896 -1.3153
  819SOL     OW 2455   2.782   1.818   0.152  0.1175  0.4812 -0.5128
  819SOL    HW1 2456   2.841   1.899   0.174 -2.1376  0.5913  4.1079
  819SOL    HW2 2457   2.839   1.734   0.136 -1.3695 -1.4350 -1.6786
  820SOL     OW 2458   3.450   2.375   0.050 -0.3994  0.0390 -0.4494
  820SOL    HW1 2459   3.395   2.462   0.034 -0.9308  0.9953 -1.0964
  820SOL    HW2 2460   3.390   2.293   0.030 -0.4804 -2.1506 -2.9276
  821SOL     OW 2461   0.455   3.090   1.802 -0.2879 -0.1083 -0.4220
  821SOL    HW1 2462   0.361   3.124   1.823 -0.9521  0.4110 -0.2202
  821SOL    HW2 2463   0.456   3.065   1.702 -1.9560  1.8334  1.3089
  822SOL     OW 2464   3.219   3.117   2.830  0.3844 -0.4583  0.4715
  822SOL    HW1 2465   3.212   3.218   2.820 -2.4842 -0.9540  0.2418
  822SOL    HW2 2466   3.140   3.067   2.785 -0.8993  3.9967 -1.2869
  823SOL     OW 2467   1.856   3.513   2.787  0.5356  0.5808 -0.1242
  823SOL    HW1 2468   1.883   3.581   2.715 -1.0063 -3.4646  3.7952
  823SOL    HW2 2469   1.801   3.567   2.855 -0.7307  0.4170  1.7442
  824SOL     OW 2470   2.862   2.052   1.271 -0.2485  0.2785 -0.3092
  824SOL    HW1 2471   2.909   2.080   1.184 -1.1157 -2.4912  2.4485
  824SOL    HW2 2472   2.861   1.949   1.283  1.0371  1.9682  0.2946
  825SOL     OW 2473   3.318   2.275   3.049  0.1356  0.5420  0.3383
  825SOL    HW1 2474   3.269   2.350   2.995 -3.0169 -0.7440 -0.0294
  825SOL    HW2 2475   3.420   2.297   3.035 -1.5449  1.6352  1.7077
  826SOL     OW 2476   3.353   1.612   2.590  0.1821 -0.3597  0.2031
  826SOL    HW1 2477   3.258   1.626   2.553  0.0386  1.1191  0.7635
  826SOL    HW2 2478   3.359   1.625   2.692  1.3648 -0.7687  1.6003
  827SOL     OW 2479   2.934   3.044   2.047 -0.0420  0.1778 -0.2153
  827SOL    HW1 2480   2.960   2.951   2.005 -0.9190  0.1322 -1.2124
  827SOL    HW2 2481   2.832   3.051   2.064  0.0774 -2.0229 -0.9143
  828SOL     OW 2482   3.466   3.505   1.868  0.6690 -0.2264 -0.6237
  828SOL    HW1 2483   3.425   3.489   1.775 -1.0614  1.7730  1.7477
  828SOL    HW2 2484   3.543   3.573   1.858  0.3826  1.1794 -1.9928
  829SOL     OW 2485   2.326   2.242   2.724  0.1259  0.6560 -0.5978
  829SOL    HW1 2486   2.230   2.259   2.692  0.7404 -0.9242 -1.5371
  829SOL    HW2 2487   2.333   2.247   2.827  0.3674  0.3243 -1.7097
  830SOL     OW 2488   1.832   0.775   1.053 -0.0421  0.0848  0.2194
  830SOL    HW1 2489   1.888   0.688   1.043 -0.1330 -0.7126 -0.9982
  830SOL    HW2 2490   1.895   0.857   1.070  1.3644 -2.6255 -0.2762
  831SOL     OW 2491   3.467   1.773   0.924 -0.1785  0.5477 -0.6512
  831SOL    HW1 2492   3.523   1.694   0.960 -0.8916  3.6259  3.2055
  831SOL    HW2 2493   3.423   1.745   0.834 -3.4035  0.5440  0.1365
  832SOL     OW 2494   1.793   2.728   2.204 -0.1775 -0.2706 -0.2189
  832SOL    HW1 2495   1.760   2.825   2.196  1.6339  0.4170 -0.0956
  832SOL    HW2 2496   1.892   2.724   2.175 -1.2270  0.1714 -0.6511
  833SOL     OW 2497   3.603   3.514   2.692  0.0568 -0.5098 -0.0133
  833SOL    HW1 2498   3.520   3.508   2.630  0.5782  1.1653 -2.2263
  833SOL    HW2 2499   3.589   3.474   2.786 -3.0563 -0.4078 -0.2182
  834SOL     OW 2500   1.281   1.221   1.512 -0.1821  0.2808 -0.0665
  834SOL    HW1 2501   1.307   1.182   1.604 -0.9916  0.9173 -0.9943
  834SOL    HW2 2502   1.354   1.194   1.442  1.2564  0.0206 -0.8394
  835SOL     OW 2503   0.014   0.887   3.293 -0.5492  0.4592 -0.4094
  835SOL    HW1 2504  -0.089   0.893   3.279  2.4416  2.4075  2.0769
  835SOL    HW2 2505   0.039   0.892   3.393 -0.3043  0.5432 -1.1128
  836SOL     OW 2506   1.221   2.782   1.199  0.0442  0.9479 -0.1910
  836SOL    HW1 2507   1.132   2.837   1.196  0.2493 -1.6369 -1.5908
  836SOL    HW2 2508   1.283   2.821   1.271  0.9555  0.6093 -0.5289
  837SOL     OW 2509   2.521   0.978   1.462  0.2404 -0.9565 -0.2616
  837SOL    HW1 2510   2.440   0.970   1.398 -0.6214 -2.5609  1.1363
  837SOL    HW2 2511   2.495   1.040   1.541 -0.7694  2.1113 -1.8108
  838SOL     OW 2512   1.674   1.988   3.323 -0.6665 -0.1163  0.3211
  838SOL    HW1 2513   1.751   1.995   3.392 -1.0641 -1.5041  2.2566
  838SOL    HW2 2514   1.693   2.058   3.249 -3.2117  0.2642 -1.1825
  839SOL     OW 2515   0.658   2.710   3.295  0.2166  0.1176  0.1121
  839SOL    HW1 2516   0.682   2.610   3.288 -2.3076 -1.5874  0.4571
  839SOL    HW2 2517   0.598   2.734   3.375  2.1674 -0.6252 -0.0941
  840SOL     OW 2518   0.901   2.880   3.342  0.5271 -0.1172 -1.0572
  840SOL    HW1 2519   0.817   2.823   3.324  0.6662  0.3631 -1.0305
  840SOL    HW2 2520   0.906   2.961   3.279 -0.7971  0.8470  0.5956
  841SOL     OW 2521   2.234   2.415   3.423  0.0073 -0.4909 -0.3008
  841SOL    HW1 2522   2.329   2.377   3.437 -0.1087 -1.9031  0.7611
  841SOL    HW2 2523   2.214   2.488   3.492  0.4199 -0.7276 -0.8422
  842SOL     OW 2524   1.821   1.035   3.299 -0.3451  0.1053  0.2122
  842SOL    HW1 2525   1.831   1.139   3.293  2.2883 -0.6163 -0.5233
  842SOL    HW2 2526   1.728   1.000   3.269 -2.6415 -1.1792 -0.8650
  843SOL     OW 2527   1.608   3.493   0.912 -0.3276  0.3611 -0.0492
  843SOL    HW1 2528   1.709   3.512   0.919 -1.4050  3.4160 -1.7367
  843SOL    HW2 2529   1.571   3.527   0.822  1.1201 -0.6370 -0.6838
  844SOL     OW 2530   2.896   3.388   3.142 -0.5704 -0.2991 -0.0001
  844SOL    HW1 2531   2.875   3.334   3.227  0.4953 -1.6003  1.6265
  844SOL    HW2 2532   2.994   3.423   3.135  2.3241  1.6089  1.4806
  845SOL     OW 2533   3.376   3.454   1.605  0.3642  0.1418  0.3458
  845SOL    HW1 2534   3.376   3.541   1.549 -1.6877  0.5895  0.2563
  845SOL    HW2 2535   3.283   3.409   1.605  0.1496 -0.7193 -3.2548
  846SOL     OW 2536   0.250   2.610   2.591  0.2028  0.5860  0.4203
  846SOL    HW1 2537   0.227   2.700   2.549  2.5618  0.9424 -0.5110
  846SOL    HW2 2538   0.275   2.623   2.690  1.7042 -1.9736  0.5966
  847SOL     OW 2539   1.976   0.177   1.697  0.2118 -0.1203  0.0135
  847SOL    HW1 2540   1.882   0.203   1.731  1.1182 -0.4641 -2.6201
  847SOL    HW2 2541   2.012   0.099   1.755 -0.3623  2.3230  0.4723
  848SOL     OW 2542   3.326   0.706   0.098  0.0175 -0.0454 -0.6376
  848SOL    HW1 2543   3.426   0.683   0.093  1.3750 -0.1602  0.4212
  848SOL    HW2 2544   3.268   0.623   0.114 -1.4035 -1.4412 -1.2397
  849SOL     OW 2545   0.612   0.702   0.154 -0.0342 -0.0797 -0.2668
  849SOL    HW1 2546   0.545   0.740   0.222 -2.8218  0.6887 -0.3998
  849SOL    HW2 2547   0.586   0.606   0.125  0.1976  0.9856  0.0142
  850SOL     OW 2548   0.393   3.183   1.249 -0.1962  0.0166 -0.1004
  850SOL    HW1 2549   0.296   3.216   1.253  1.7903  0.5360 -1.9245
  850SOL    HW2 2550   0.450   3.256   1.203  1.0320 -2.7399  0.0937
  851SOL     OW 2551   2.272   0.233   2.842 -0.4559 -0.4258  0.1699
  851SOL    HW1 2552   2.176   0.254   2.863  2.6434 -1.5946 -0.6216
  851SOL    HW2 2553   2.279   0.182   2.752 -3.0578 -0.8526  1.0187
  852SOL     OW 2554   1.823   1.837   2.740  0.4913  0.9040  0.4227
  852SOL    HW1 2555   1.796   1.771   2.812 -2.6611  0.7715 -0.3746
  852SOL    HW2 2556   1.739   1.871   2.688 -1.0388 -2.4488  0.5047
  853SOL     OW 2557   0.113   3.452   0.555  0.2698  0.6761 -0.3275
  853SOL    HW1 2558   0.111   3.372   0.488 -2.5722  1.8122  1.5776
  853SOL    HW2 2559   0.169   3.426   0.637  2.9337 -1.1213  2.5180
  854SOL     OW 2560   2.856   3.612   0.808  0.4396 -0.0986  0.0258
  854SOL    HW1 2561   2.805   3.701   0.802  2.7713 -2.8935 -0.6182
  854SOL    HW2 2562   2.814   3.547   0.740  0.6393  1.1984  1.0012
  855SOL     OW 2563   1.651   2.520   0.865  0.5815  0.1525 -0.1607
  855SOL    HW1 2564   1.611   2.465   0.789 -1.1760  2.5696  1.6176
  855SOL    HW2 2565   1.578   2.564   0.923  1.6020 -0.3768  1.8460
  856SOL     OW 2566   2.805   0.551   0.437 -0.6783 -0.0127  0.5005
  856SOL    HW1 2567   2.783   0.450   0.440  2.1326  0.4236 -1.0074
  856SOL    HW2 2568   2.903   0.567   0.466  1.3543 -0.8815 -1.4005
  857SOL     OW 2569   2.179   2.967   2.055 -0.5816  0.0093  0.0953
  857SOL    HW1 2570   2.221   3.001   2.143 -0.8147  0.1315 -0.6137
  857SOL    HW2 2571   2.251   2.932   1.993 -0.3615 -1.3247 -1.4924
  858SOL     OW 2572   3.032   2.615   1.615 -0.2449  0.1733  0.4784
  858SOL    HW1 2573   3.102   2.632   1.543  0.4373  3.4086  2.4996
  858SOL    HW2 2574   2.938   2.597   1.576  2.6523  1.0242 -0.5053
  859SOL     OW 2575   1.360   2.993   0.882 -0.5050  0.0726 -0.2149
  859SOL    HW1 2576   1.273   3.027   0.929 -2.5941  2.4161 -0.4348
  859SOL    HW2 2577   1.438   3.057   0.907  0.6580 -2.1783 -2.1586
  860SOL     OW 2578   2.587   2.804   0.271 -0.3866  0.9336  0.7528
  860SOL    HW1 2579   2.607   2.718   0.324  0.5308  1.6155  0.2137
  860SOL    HW2 2580   2.589   2.784   0.169  3.4341  1.5373 -0.8994
  861SOL     OW 2581   2.470   2.774   1.096  0.1716 -0.9665 -0.0957
  861SOL    HW1 2582   2.492   2.826   1.009 -0.5993  0.9467  0.4831
  861SOL    HW2 2583   2.554   2.761   1.154 -0.6590 -1.3155 -2.4555
  862SOL     OW 2584   2.080   3.256   3.248  0.0430 -0.0238  0.4724
  862SOL    HW1 2585   2.067   3.320   3.169 -0.8598 -0.4296  1.1765
  862SOL    HW2 2586   2.087   3.308   3.336  2.4675 -1.1687 -0.1009
  863SOL     OW 2587   0.651   0.023   0.354  0.4715  0.1169  0.1541
  863SOL    HW1 2588   0.685  -0.025   0.438  0.5824 -0.7465  1.3445
  863SOL    HW2 2589   0.684  -0.019   0.266 -1.4147 -1.1513  0.2749
  864SOL     OW 2590   3.071   3.080   2.395  0.3226  0.4524 -0.4138
  864SOL    HW1 2591   3.160   3.029   2.389  0.1679  2.3431 -0.9896
  864SOL    HW2 2592   3.015   3.066   2.309 -0.4224 -1.2633  0.3301
  865SOL     OW 2593   0.016   2.429   3.313  0.2900 -0.4666 -0.2617
  865SOL    HW1 2594   0.037   2.387   3.404  2.2766  0.3643  0.5487
  865SOL    HW2 2595  -0.052   2.506   3.323 -2.5960  0.4997 -1.7146
  866SOL     OW 2596   3.040   0.356   3.295 -0.2748  0.2534 -0.0014
  866SOL    HW1 2597   3.112   0.334   3.225 -0.0750 -0.2342 -0.6641
  866SOL    HW2 2598   3.028   0.458   3.303  0.7167 -0.7595 -0.9230
  867SOL     OW 2599   3.544   3.438   3.029 -0.5361  0.2194 -0.4296
  867SOL    HW1 2600   3.463   3.501   3.035 -1.4902  0.9276 -0.9305
  867SOL    HW2 2601   3.528   3.359   3.094  1.9004  0.7756  0.1550
  868SOL     OW 2602   0.980   3.222   0.942  0.3164  0.1377  0.4681
  868SOL    HW1 2603   1.033   3.309   0.959 -0.1321  0.1856  2.4896
  868SOL    HW2 2604   0.981   3.198   0.842 -1.1510  0.3028  1.3924
  869SOL     OW 2605   1.584   1.592   1.440 -0.6872 -0.4416 -0.2960
  869SOL    HW1 2606   1.542   1.679   1.403  0.7911  0.0679 -0.0204
  869SOL    HW2 2607   1.658   1.553   1.383 -0.1657 -0.4427  0.3718
  870SOL     OW 2608   2.238   2.058   1.341 -0.7923  0.4744  0.3448
  870SOL    HW1 2609   2.272   1.960   1.345  1.3825  0.3588  3.0095
  870SOL    HW2 2610   2.289   2.125   1.401  2.7242  2.7153  1.3913
  871SOL     OW 2611   1.212   1.694   1.221  0.3425  0.1040 -0.1493
  871SOL    HW1 2612   1.206   1.633   1.137 -4.0158  1.4531 -0.0798
  871SOL    HW2 2613   1.139   1.767   1.218  0.7545 -1.2408 -1.3019
  872SOL     OW 2614   1.345   0.625   0.884 -0.4074  0.4838  0.1009
  872SOL    HW1 2615   1.426   0.673   0.844 -0.9365 -1.2766  1.9852
  872SOL    HW2 2616   1.349   0.610   0.987  3.3317 -1.3517  0.1620
  873SOL     OW 2617   2.030   0.542   3.219  0.3267 -0.3305 -0.1148
  873SOL    HW1 2618   2.091   0.598   3.282  0.6170 -0.3659  0.6999
  873SOL    HW2 2619   2.026   0.587   3.126 -0.2541 -0.2933 -3.3617
  874SOL     OW 2620   0.620   1.442   1.350  0.1521 -1.0301  0.0783
  874SOL    HW1 2621   0.651   1.525   1.406  0.7280 -2.1007  0.3210
  874SOL    HW2 2622   0.536   1.462   1.291  2.2678  1.1864  3.4548
  875SOL     OW 2623   3.252   3.235   3.563 -0.2877 -0.0849 -0.0782
  875SOL    HW1 2624   3.236   3.163   3.491 -0.9016  0.8842 -0.5456
  875SOL    HW2 2625   3.243   3.331   3.525 -0.5133 -0.5246 -0.4371
  876SOL     OW 2626   0.943   0.665   3.440  0.3790 -0.3729  0.4487
  876SOL    HW1 2627   0.945   0.685   3.542  0.6599  1.6573  0.8891
  876SOL    HW2 2628   1.003   0.731   3.388  0.0508  0.8958  2.2572
  877SOL     OW 2629   3.630   3.279   1.617  0.6091  0.3075 -0.4139
  877SOL    HW1 2630   3.695   3.317   1.547 -1.5087 -0.1261  0.6146
  877SOL    HW2 2631   3.546   3.339   1.622  1.2130 -0.5364  0.5312
  878SOL     OW 2632   2.322   2.240   3.008 -0.1713  0.2508  0.1033
  878SOL    HW1 2633   2.253   2.306   3.046  3.3033 -2.5735  1.3005
  878SOL    HW2 2634   2.412   2.249   3.058  0.9575  0.5417  1.5301
  879SOL     OW 2635   2.580   2.063   2.155  0.5222  0.3354  0.0781
  879SOL    HW1 2636   2.603   2.056   2.256 -1.4448  1.5799  0.0579
  879SOL    HW2 2637   2.649   2.016   2.094 -1.4737 -3.5194 -0.5133
  880SOL     OW 2638   1.115   1.206   1.058 -0.4101  0.0199  0.5205
  880SOL    HW1 2639   1.198   1.252   1.100 -1.4201  0.1091 -1.5912
  880SOL    HW2 2640   1.120   1.105   1.075 -1.4577 -1.7774  0.2526
  881SOL     OW 2641   1.483   1.819   0.062  0.1511  0.2529  0.3871
  881SOL    HW1 2642   1.470   1.911   0.110  0.0193 -2.2214 -0.8647
  881SOL    HW2 2643   1.527   1.755   0.129  0.4998 -1.8962  3.7013
  882SOL     OW 2644   2.179   3.630   1.331 -0.0378 -0.0219  0.0577
  882SOL    HW1 2645   2.190   3.700   1.406  0.0190 -1.5519 -2.8548
  882SOL    HW2 2646   2.263   3.623   1.272  0.9168 -0.8773  1.7025
  883SOL     OW 2647   2.255   0.791   2.481  0.6509  0.1342 -0.4806
  883SOL    HW1 2648   2.164   0.744   2.470  1.5636 -2.2117  2.8692
  883SOL    HW2 2649   2.332   0.723   2.483  1.0129 -1.8795  0.8686
  884SOL     OW 2650   3.162   0.820   3.526  0.5022  0.9758 -0.2296
  884SOL    HW1 2651   3.221   0.865   3.453  0.4167 -0.3905  0.6977
  884SOL    HW2 2652   3.221   0.785   3.603  0.7312  0.1295 -1.6334
  885SOL     OW 2653   1.363   2.700   0.965 -0.4528  0.0248  0.1133
  885SOL    HW1 2654   1.379   2.793   0.921  0.1190 -1.6535 -1.3305
  885SOL    HW2 2655   1.317   2.715   1.055  2.4282  1.4447 -0.0573
  886SOL     OW 2656   1.525   0.977   3.196  0.1150  0.0910 -0.5308
  886SOL    HW1 2657   1.459   0.921   3.251  1.1486  0.5222 -1.7300
  886SOL    HW2 2658   1.473   1.059   3.162  2.2705 -0.7340 -3.7421
  887SOL     OW 2659   2.055   3.608   1.879  0.2614 -0.5381 -0.0457
  887SOL    HW1 2660   2.123   3.637   1.950 -1.5083  1.7203  0.8105
  887SOL    HW2 2661   1.979   3.551   1.916 -0.2632  1.6560  1.8036
  888SOL     OW 2662   3.364   1.989   1.897 -0.0800 -0.3581  0.1900
  888SOL    HW1 2663   3.443   1.989   1.964  1.1923 -1.0755  0.6360
  888SOL    HW2 2664   3.376   1.914   1.826  3.3384  0.7289 -2.0340
  889SOL     OW 2665   3.559   3.267   0.825  0.4893 -0.1348  0.2856
  889SOL    HW1 2666   3.491   3.246   0.900  1.5759 -1.9196  1.4899
  889SOL    HW2 2667   3.537   3.357   0.779 -0.6154 -1.1466 -2.7027
  890SOL     OW 2668   0.791   2.286   2.572 -0.5201  0.1319  0.2426
  890SOL    HW1 2669   0.804   2.389   2.565  0.0648  0.8622  2.1226
  890SOL    HW2 2670   0.730   2.258   2.492  1.6763  0.8896  2.0826
  891SOL     OW 2671   0.837   2.031   0.683 -0.0846  0.4207  0.5031
  891SOL    HW1 2672   0.913   2.081   0.732  0.3871  0.2073  0.1664
  891SOL    HW2 2673   0.771   2.098   0.637 -0.3902 -3.4970 -0.2170
  892SOL     OW 2674   3.113   3.047   1.456  0.4435  0.5010  0.2852
  892SOL    HW1 2675   3.153   3.015   1.546  1.5743  2.4895 -3.6554
  892SOL    HW2 2676   3.161   3.003   1.374 -0.1974 -1.1350 -1.1880
  893SOL     OW 2677   0.254   0.559   2.080 -0.2951  0.1259  0.0972
  893SOL    HW1 2678   0.249   0.523   1.982 -0.3849  0.6198 -0.4154
  893SOL    HW2 2679   0.261   0.661   2.082  0.0750 -0.8632 -0.8210
  894SOL     OW 2680   3.247   2.184   1.165 -0.2712  0.1180 -0.4937
  894SOL    HW1 2681   3.159   2.170   1.115 -0.2458  2.3039  0.1864
  894SOL    HW2 2682   3.278   2.087   1.189  0.2965 -0.0247  1.7228
  895SOL     OW 2683   1.415   2.915   1.672 -0.4982 -0.7048  0.6186
  895SOL    HW1 2684   1.489   2.858   1.716  0.2072 -1.2205 -0.7563
  895SOL    HW2 2685   1.410   3.011   1.710 -1.3632 -0.1670 -1.7641
  896SOL     OW 2686   0.886   0.402   1.563  0.3754 -0.4048 -0.1466
  896SOL    HW1 2687   0.823   0.399   1.645 -0.6548 -0.4671  0.7557
  896SOL    HW2 2688   0.983   0.418   1.593 -1.5633 -3.2487  0.2049
  897SOL     OW 2689   1.405   1.337   1.156 -0.2618  0.2488 -0.1464
  897SOL    HW1 2690   1.415   1.420   1.216  0.9948 -0.3741 -2.2256
  897SOL    HW2 2691   1.451   1.254   1.197  0.3649  0.6545 -1.0736
  898SOL     OW 2692   0.953   0.377   2.024 -0.0746  0.0900 -0.0426
  898SOL    HW1 2693   0.941   0.463   2.080 -2.8906 -0.3716  0.2487
  898SOL    HW2 2694   1.049   0.338   2.024  1.1900 -3.0520  0.6389
  899SOL     OW 2695   1.725   0.420   0.239 -0.0981 -0.1623 -0.0651
  899SOL    HW1 2696   1.820   0.452   0.210 -0.9842  2.9320  0.9044
  899SOL    HW2 2697   1.663   0.501   0.255  3.0433  0.5843 -0.1481
  900SOL     OW 2698   1.216   0.785   2.844  0.2800 -0.3631  0.0608
  900SOL    HW1 2699   1.196   0.881   2.876  1.5008 -2.1585  2.5096
  900SOL    HW2 2700   1.171   0.767   2.752  0.4169  2.5287  2.1214
  901SOL     OW 2701   0.855   2.395   0.534 -0.3576 -0.4086 -0.2755
  901SOL    HW1 2702   0.941   2.348   0.502  0.3500  0.7174  0.0790
  901SOL    HW2 2703   0.774   2.354   0.484 -1.2029  1.5180 -2.5685
  902SOL     OW 2704   2.154   0.232   0.848  0.1408  0.3642  1.0885
  902SOL    HW1 2705   2.184   0.171   0.770 -0.5084  1.5593 -0.0905
  902SOL    HW2 2706   2.082   0.181   0.903  2.9896  1.1552 -0.9884
  903SOL     OW 2707   0.050   1.617   3.008  0.6269  0.2264  0.0149
  903SOL    HW1 2708   0.103   1.695   2.965  4.8873  2.2573  0.2399
  903SOL    HW2 2709  -0.037   1.602   2.953 -0.5723 -0.3343  2.2467
  904SOL     OW 2710   1.992   1.460   0.479  0.0104  0.3874 -0.0123
  904SOL    HW1 2711   1.935   1.494   0.557  1.1756 -0.9545 -0.1447
  904SOL    HW2 2712   2.013   1.359   0.487 -0.0406 -2.2111 -2.5056
  905SOL     OW 2713   2.282   3.232   1.570  0.3157 -0.0068  0.0615
  905SOL    HW1 2714   2.216   3.269   1.499  1.3964  0.0468  0.3641
  905SOL    HW2 2715   2.301   3.132   1.554 -1.7603 -2.7518 -1.4499
  906SOL     OW 2716   2.640   3.123   0.986 -0.1455  0.1748  0.2062
  906SOL    HW1 2717   2.577   3.205   0.981 -1.1589 -0.6132 -0.0723
  906SOL    HW2 2718   2.692   3.122   1.076  0.4099  1.1848 -0.0175
  907SOL     OW 2719   2.601   1.157   0.480  0.1295  0.4141 -0.7106
  907SOL    HW1 2720   2.569   1.060   0.494  0.2655 -0.2444 -0.7248
  907SOL    HW2 2721   2.536   1.224   0.523 -0.3384  1.0506  0.4644
  908SOL     OW 2722   2.215   0.301   1.614  0.1272  0.1003  0.0090
  908SOL    HW1 2723   2.205   0.402   1.600 -0.0496  0.2017  0.9921
  908SOL    HW2 2724   2.125   0.262   1.645  1.7589  0.9953 -1.2593
  909SOL     OW 2725   2.856   3.344   1.191  0.5099  0.2262 -0.2919
  909SOL    HW1 2726   2.833   3.401   1.107  0.5195  1.9202 -1.5231
  909SOL    HW2 2727   2.852   3.401   1.278 -1.9722 -3.4593 -1.3684
  910SOL     OW 2728   2.697   0.635   2.326  0.2654 -0.5410  0.1812
  910SOL    HW1 2729   2.622   0.630   2.396  1.4680 -0.4742 -0.2275
  910SOL    HW2 2730   2.777   0.574   2.348 -1.2404  2.8218  1.3772
  911SOL     OW 2731   2.222   0.022   3.099  0.1384  0.1312  0.2639
  911SOL    HW1 2732   2.188   0.085   3.174  1.1833 -0.4060  1.4989
  911SOL    HW2 2733   2.264   0.074   3.022  0.8212 -1.7148  1.6091
  912SOL     OW 2734   0.616   1.084   1.550  0.5081 -0.0250 -0.4090
  912SOL    HW1 2735   0.714   1.114   1.546 -0.8925 -1.8324 -0.6694
  912SOL    HW2 2736   0.607   0.982   1.539  2.5076 -0.8223  1.5382
  913SOL     OW 2737   2.851   3.066   1.288 -0.6356  0.0575 -0.5158
  913SOL    HW1 2738   2.848   3.165   1.259 -1.2244  1.9051  2.6029
  913SOL    HW2 2739   2.926   3.053   1.357 -0.2000  0.4723 -1.3641
  914SOL     OW 2740   1.356   0.539   1.184  0.2909  0.3029 -0.1256
  914SOL    HW1 2741   1.443   0.523   1.237 -2.3620 -0.4369  0.6601
  914SOL    HW2 2742   1.320   0.448   1.150  0.1105 -1.4302 -2.1487
  915SOL     OW 2743   0.391   1.857   1.605 -0.3077  0.0194  0.0883
  915SOL    HW1 2744   0.376   1.860   1.503  0.1615  1.0561 -2.0853
  915SOL    HW2 2745   0.397   1.951   1.649 -1.8063 -5.2542 -0.2295
  916SOL     OW 2746   2.233   2.617   1.095 -0.2925  0.3141 -0.9661
  916SOL    HW1 2747   2.318   2.675   1.100  0.5439  0.6767  0.4811
  916SOL    HW2 2748   2.152   2.673   1.121  2.3707  1.1163  0.9347
  917SOL     OW 2749   2.354   2.809   2.707 -0.1777  0.2361  0.3443
  917SOL    HW1 2750   2.370   2.798   2.606  0.1881  0.6651  0.7869
  917SOL    HW2 2751   2.279   2.878   2.723 -2.1185  0.6540 -1.1579
  918SOL     OW 2752   2.376   1.931   3.015  0.4564  0.0717 -0.3014
  918SOL    HW1 2753   2.458   1.927   3.079  1.4351 -0.0618 -0.2720
  918SOL    HW2 2754   2.341   2.028   3.006  3.4114 -3.1539  0.4162
  919SOL     OW 2755   0.887   0.642   1.355 -0.4428  0.4110 -0.0381
  919SOL    HW1 2756   0.883   0.565   1.423 -0.6079  2.0661 -0.6371
  919SOL    HW2 2757   0.983   0.679   1.347 -1.0364  2.4270  0.6623
  920SOL     OW 2758   3.321   0.879   2.483 -0.4464 -0.2689 -0.0994
  920SOL    HW1 2759   3.338   0.817   2.402  2.6464  0.2497  1.0184
  920SOL    HW2 2760   3.387   0.860   2.558 -2.2333  0.2349  0.7597
  921SOL     OW 2761   2.942   1.436   1.719 -0.2589 -0.0843 -0.3224
  921SOL    HW1 2762   3.014   1.396   1.656  2.4774 -2.4251 -0.7203
  921SOL    HW2 2763   2.986   1.472   1.805  1.9115  0.7128 -0.9366
  922SOL     OW 2764   3.256   2.688   0.955 -0.0228 -0.0672 -0.2584
  922SOL    HW1 2765   3.214   2.624   1.024  0.3064 -0.7402  1.2315
  922SOL    HW2 2766   3.184   2.760   0.939  0.2488 -0.9134 -1.8465
  923SOL     OW 2767   0.045   2.722   0.652 -0.0572 -0.1683 -0.3238
  923SOL    HW1 2768   0.086   2.708   0.747  1.0221  1.5751  4.0428
  923SOL    HW2 2769   0.112   2.694   0.575  0.4815 -0.5652 -1.0164
  924SOL     OW 2770   1.121   1.413   3.500 -0.0640 -0.3979  0.0542
  924SOL    HW1 2771   1.188   1.463   3.438  1.4981 -2.4151 -1.2637
  924SOL    HW2 2772   1.047   1.476   3.534 -1.5855 -0.1887 -0.4446
  925SOL     OW 2773   3.605   1.531   1.033  0.1108  0.1067  0.0075
  925SOL    HW1 2774   3.662   1.557   1.115  0.0193  1.0900 -0.3184
  925SOL    HW2 2775   3.543   1.452   1.056 -1.7244  0.3278  1.1848
  926SOL     OW 2776   0.122   0.029   1.495  0.2475 -0.1164  0.1388
  926SOL    HW1 2777   0.225   0.011   1.489  0.5774  0.3985 -1.6443
  926SOL    HW2 2778   0.082   0.006   1.402  1.3518  1.9116  1.8551
  927SOL     OW 2779   0.718   2.110   2.841  0.4644  0.6083 -0.0495
  927SOL    HW1 2780   0.798   2.046   2.854 -2.4621 -0.4666  0.2666
  927SOL    HW2 2781   0.723   2.156   2.749 -0.1812  1.4822  1.0145
  928SOL     OW 2782   0.412   0.780   2.776  0.1652  0.3386  0.3530
  928SOL    HW1 2783   0.451   0.685   2.791 -0.0142  1.8627  0.2732
  928SOL    HW2 2784   0.352   0.804   2.857 -1.7469 -0.3361 -1.0014
  929SOL     OW 2785   3.132   2.501   1.150  0.1443  0.2825 -0.3923
  929SOL    HW1 2786   3.031   2.509   1.137  1.0117  1.0661  0.2769
  929SOL    HW2 2787   3.160   2.401   1.149 -1.9696  2.2701  0.1350
  930SOL     OW 2788   2.010   0.289   2.881  0.1985  0.0392  0.1267
  930SOL    HW1 2789   1.931   0.237   2.927 -0.3416  1.4147 -0.7416
  930SOL    HW2 2790   1.977   0.373   2.830 -0.7973 -1.0721  2.3122
  931SOL     OW 2791   2.902   1.129   3.326 -0.3654 -0.2021  0.3969
  931SOL    HW1 2792   2.916   1.145   3.428  0.5190 -0.9508 -2.0708
  931SOL    HW2 2793   2.819   1.070   3.310 -0.9296  0.3360 -2.7326
  932SOL     OW 2794   2.112   1.049   0.762  0.7418 -0.1101  0.0497
  932SOL    HW1 2795   2.094   1.091   0.671 -0.7602  2.6295 -1.5727
  932SOL    HW2 2796   2.165   0.962   0.753 -3.9865 -0.5593  1.2934
  933SOL     OW 2797   2.747   0.732   0.867 -0.4981 -0.1016  0.2538
  933SOL    HW1 2798   2.692   0.708   0.782  0.4315 -1.3808  1.5054
  933SOL    HW2 2799   2.775   0.830   0.864  0.7070 -0.0931  0.2624
  934SOL     OW 2800   3.114   1.395   2.823  0.2236  0.1256 -0.0584
  934SOL    HW1 2801   3.189   1.322   2.826  1.0456 -2.9782 -0.3132
  934SOL    HW2 2802   3.079   1.397   2.726  1.1984 -2.3675  2.6150
  935SOL     OW 2803   0.129   1.589   1.286 -0.5851  0.4074 -0.0393
  935SOL    HW1 2804   0.099   1.684   1.313 -0.0144 -0.6499  0.0346
  935SOL    HW2 2805   0.123   1.530   1.371  0.7124  1.4151  0.2091
  936SOL     OW 2806   0.038   3.500   0.080  0.1375 -0.0477 -0.1318
  936SOL    HW1 2807   0.059   3.399   0.081  1.0891  0.6698  0.8579
  936SOL    HW2 2808   0.115   3.551   0.126 -0.1126  3.4440  1.6897
  937SOL     OW 2809   3.359   2.936   2.402  0.1600 -0.6199  0.1649
  937SOL    HW1 2810   3.373   2.930   2.505  0.1452 -0.2756 -2.5073
  937SOL    HW2 2811   3.393   2.855   2.350 -0.7197 -0.0768  0.1435
  938SOL     OW 2812   2.644   2.748   3.540 -0.0001  0.8723  0.0405
  938SOL    HW1 2813   2.704   2.665   3.544  1.1154  1.9381 -0.4418
  938SOL    HW2 2814   2.564   2.730   3.478 -1.2635 -1.2937 -3.8098
  939SOL     OW 2815   1.233   0.712   1.658 -0.3814  0.1314  0.1870
  939SOL    HW1 2816   1.331   0.748   1.668  1.9882  0.9502 -1.6548
  939SOL    HW2 2817   1.163   0.771   1.707  0.0762 -1.1561 -2.4962
  940SOL     OW 2818   2.779   3.413   3.621  0.0131 -0.4499  0.2504
  940SOL    HW1 2819   2.689   3.455   3.591 -0.0059 -0.6093  1.8408
  940SOL    HW2 2820   2.814   3.343   3.553  1.4304  1.2727  0.4315
  941SOL     OW 2821   3.089   3.343   2.498 -0.2024 -0.6115  0.2358
  941SOL    HW1 2822   3.006   3.397   2.468 -1.2802 -1.4423  0.1778
  941SOL    HW2 2823   3.084   3.247   2.464  0.2931 -3.0981 -0.6878
  942SOL     OW 2824   1.905   0.017   1.227  0.2073  0.6782 -0.2364
  942SOL    HW1 2825   1.840  -0.049   1.272 -0.5762 -1.7393 -1.4056
  942SOL    HW2 2826   2.002   0.010   1.262 -0.6855  0.2154  0.5659
  943SOL     OW 2827   1.483   1.865   2.880  0.1430 -0.0661 -0.5540
  943SOL    HW1 2828   1.558   1.807   2.924 -0.1080 -0.8540  2.8108
  943SOL    HW2 2829   1.511   1.888   2.784  0.9640 -1.2293  0.0004
  944SOL     OW 2830   3.180   1.017   1.579  0.1107  0.3235 -0.4414
  944SOL    HW1 2831   3.259   0.972   1.528 -1.2286  1.4480 -1.0782
  944SOL    HW2 2832   3.106   0.945   1.583 -1.2572 -1.4158  3.4395
  945SOL     OW 2833   3.157   0.051   3.214  0.2326  0.5940 -0.3974
  945SOL    HW1 2834   3.068   0.095   3.244  0.5622  0.3972  0.5167
  945SOL    HW2 2835   3.208   0.123   3.157  1.6008 -3.2120  2.4006
  946SOL     OW 2836   0.056   1.691   1.641  0.2823 -0.1626 -0.0661
  946SOL    HW1 2837   0.139   1.753   1.643 -1.0451 -0.9424  0.9255
  946SOL    HW2 2838   0.084   1.594   1.620  0.8849  0.4626 -3.4101
  947SOL     OW 2839   0.515   0.480   3.272  0.0988 -0.0831 -1.0421
  947SOL    HW1 2840   0.524   0.380   3.295 -0.7116  1.6535  1.1285
  947SOL    HW2 2841   0.440   0.499   3.203  0.2530 -1.6423  1.6011
  948SOL     OW 2842   2.334   1.779   1.396 -0.1506  0.0184  0.8855
  948SOL    HW1 2843   2.336   1.772   1.499  0.3188  4.2940 -3.7030
  948SOL    HW2 2844   2.415   1.729   1.356  2.4227 -1.1777  1.8361
  949SOL     OW 2845   0.455   1.484   3.438 -0.3539 -0.6873 -0.2441
  949SOL    HW1 2846   0.467   1.563   3.372 -2.9204 -0.7576 -2.8326
  949SOL    HW2 2847   0.393   1.410   3.400 -0.6118 -1.4515  0.8119
  950SOL     OW 2848   0.682   3.286   1.874  0.0562 -0.3669  0.9628
  950SOL    HW1 2849   0.605   3.223   1.849 -0.7015 -1.5617 -1.8383
  950SOL    HW2 2850   0.767   3.231   1.898  0.9634  2.4721  1.2961
  951SOL     OW 2851   0.980   2.558   2.900 -0.0626  0.6403 -0.0639
  951SOL    HW1 2852   0.912   2.496   2.945 -1.5321  0.8791 -0.9140
  951SOL    HW2 2853   1.066   2.569   2.954 -3.3519  0.4974 -0.8294
  952SOL     OW 2854   0.779   1.268   0.678 -0.0461 -0.6718 -0.2665
  952SOL    HW1 2855   0.750   1.181   0.722 -2.0368 -2.4127 -1.8887
  952SOL    HW2 2856   0.743   1.279   0.582 -1.1293 -4.7053  2.1799
  953SOL     OW 2857   2.603   1.863   3.486  0.1066 -0.0877  0.0985
  953SOL    HW1 2858   2.517   1.806   3.495 -2.2236 -1.1226  0.5863
  953SOL    HW2 2859   2.666   1.852   3.568 -3.0688 -0.9082 -0.0131
  954SOL     OW 2860   1.792   0.298   0.554  0.0238 -0.0887 -0.1773
  954SOL    HW1 2861   1.774   0.306   0.453  1.1126  0.2757 -3.2817
  954SOL    HW2 2862   1.837   0.207   0.573 -1.9188 -0.2344 -0.3219
  955SOL     OW 2863   1.030   1.845   0.120  0.4517 -0.1434  0.4255
  955SOL    HW1 2864   0.999   1.775   0.052 -1.6649  0.1451 -0.4116
  955SOL    HW2 2865   1.088   1.801   0.194 -1.4252 -1.0311 -1.7655
  956SOL     OW 2866   3.263   0.429   2.362 -0.3571 -0.2489 -0.6894
  956SOL    HW1 2867   3.286   0.524   2.328 -1.6920  0.2642 -0.8118
  956SOL    HW2 2868   3.306   0.408   2.453  1.4458  0.7157  2.3122
  957SOL     OW 2869   2.289   2.283   2.329  0.1167  0.6365 -0.0899
  957SOL    HW1 2870   2.187   2.274   2.332 -1.4456 -0.0293 -0.6292
  957SOL    HW2 2871   2.340   2.207   2.378 -0.0896  0.5618  0.8546
  958SOL     OW 2872   2.046   1.031   1.428  0.1109 -0.1169  0.0231
  958SOL    HW1 2873   2.097   1.119   1.420 -1.3028  0.7530  0.3997
  958SOL    HW2 2874   2.061   0.982   1.518  0.8880  0.7090  0.6412
  959SOL     OW 2875   1.707   2.519   2.416  0.0681 -0.0572 -0.1339
  959SOL    HW1 2876   1.743   2.426   2.387  3.0926  1.8339  2.8377
  959SOL    HW2 2877   1.719   2.594   2.346 -3.1010 -1.1844 -2.2256
  960SOL     OW 2878   0.923   1.452   3.055  0.0877 -0.5658  0.3575
  960SOL    HW1 2879   1.012   1.473   3.004 -2.6328 -0.3781 -0.1355
  960SOL    HW2 2880   0.843   1.457   2.990 -0.0159  1.4129 -2.1389
  961SOL     OW 2881   3.215   1.431   0.163  0.3957 -0.0017  0.2173
  961SOL    HW1 2882   3.228   1.518   0.220  2.8150  2.3004 -1.4622
  961SOL    HW2 2883   3.123   1.436   0.115 -1.3236 -1.2046  0.3455
  962SOL     OW 2884   1.021   2.127   0.091  0.2762  0.4286  0.0461
  962SOL    HW1 2885   1.026   2.025   0.091 -1.9849 -1.0506 -1.0041
  962SOL    HW2 2886   1.093   2.172   0.033 -0.7407 -0.6790 -2.3868
  963SOL     OW 2887   3.295   1.824   0.005  0.6700 -0.3094 -0.3917
  963SOL    HW1 2888   3.253   1.780   0.090 -0.4488  0.9627  0.0549
  963SOL    HW2 2889   3.392   1.799  -0.019  2.7894  2.3534 -0.1403
  964SOL     OW 2890   0.826   2.574   2.545  0.6058 -0.1827 -0.8376
  964SOL    HW1 2891   0.891   2.590   2.623  0.4909  1.0949 -1.5316
  964SOL    HW2 2892   0.786   2.665   2.518  2.8512 -1.7464 -0.0922
  965SOL     OW 2893   1.487   2.220   1.637 -0.4055 -0.0047 -0.5525
  965SOL    HW1 2894   1.531   2.261   1.555 -0.9693 -2.7176  1.9863
  965SOL    HW2 2895   1.446   2.127   1.617  0.4270 -0.3430  0.9064
  966SOL     OW 2896   3.557   1.757   0.461  0.2504  0.0739  0.2681
  966SOL    HW1 2897   3.644   1.747   0.516 -0.0513 -1.0108 -1.7903
  966SOL    HW2 2898   3.564   1.719   0.364 -0.8713 -0.7633 -2.3553
  967SOL     OW 2899   2.239   3.096   3.052  0.0454  0.6120 -0.0025
  967SOL    HW1 2900   2.176   3.146   3.116 -0.7412  0.3608 -2.9331
  967SOL    HW2 2901   2.330   3.082   3.099  0.2228  0.2519 -0.9308
  968SOL     OW 2902   1.702   1.518   3.388  0.4717  0.4498 -0.2158
  968SOL    HW1 2903   1.747   1.527   3.482 -0.3191  2.4729  1.1422
  968SOL    HW2 2904   1.627   1.588   3.383  1.9145 -1.3271 -0.1630
  969SOL     OW 2905   0.192   1.079   2.879  0.1353 -0.2683 -0.3623
  969SOL    HW1 2906   0.189   1.154   2.806  0.4237 -1.8390 -2.7305
  969SOL    HW2 2907   0.263   1.101   2.951  0.5246 -1.1049 -2.2204
  970SOL     OW 2908   2.756   0.246   0.464  0.0232 -0.7768  0.1453
  970SOL    HW1 2909   2.668   0.225   0.416  0.5694  0.2305  0.2118
  970SOL    HW2 2910   2.832   0.177   0.451  1.3175  0.0909 -2.8623
  971SOL     OW 2911   1.873   2.343   0.927  0.1843 -0.0391 -0.1380
  971SOL    HW1 2912   1.798   2.412   0.914 -0.0004  2.2439 -1.2137
  971SOL    HW2 2913   1.917   2.352   1.020 -1.6234  1.8263 -1.4686
  972SOL     OW 2914   0.227   2.389   3.113 -0.4477 -0.1484 -0.0957
  972SOL    HW1 2915   0.153   2.405   3.181  1.8723  0.0044  0.9075
  972SOL    HW2 2916   0.302   2.329   3.151 -0.9322  2.1670 -0.3377
  973SOL     OW 2917   0.603   0.625   0.518  0.6525 -0.3297 -0.3072
  973SOL    HW1 2918   0.538   0.684   0.464 -2.8531 -1.6116  2.6339
  973SOL    HW2 2919   0.631   0.539   0.467  1.9034 -1.4875 -1.3634
  974SOL     OW 2920   3.255   0.755   2.014  0.1587 -0.2942 -0.9242
  974SOL    HW1 2921   3.288   0.690   1.942 -0.7656  0.1033  3.9953
  974SOL    HW2 2922   3.152   0.771   2.010 -0.4514 -0.5665 -1.3780
  975SOL     OW 2923   0.366   3.613   0.958 -0.3542 -0.1902  0.7573
  975SOL    HW1 2924   0.329   3.537   0.899 -0.3345  0.6206  0.2983
  975SOL    HW2 2925   0.426   3.675   0.902 -1.0794 -0.3860  3.0482
  976SOL     OW 2926   0.896   1.866   1.708 -0.4630 -0.4064 -0.0050
  976SOL    HW1 2927   0.817   1.801   1.692  2.0168 -0.5164  0.1489
  976SOL    HW2 2928   0.868   1.966   1.709 -0.3874  0.1468  1.6728
  977SOL     OW 2929   1.533   2.384   0.651  0.1530 -0.3598 -0.5681
  977SOL    HW1 2930   1.565   2.433   0.566 -0.8587 -0.4505 -1.1633
  977SOL    HW2 2931   1.536   2.281   0.641 -0.5082 -2.2601  0.9962
  978SOL     OW 2932   0.093   1.341   0.045 -0.6700  0.5986  0.4686
  978SOL    HW1 2933   0.072   1.350  -0.056  0.3677  0.6282  0.1959
  978SOL    HW2 2934   0.191   1.314   0.065 -0.4395 -0.2134 -0.0628
  979SOL     OW 2935   2.314   1.354   0.310 -0.2393 -0.9027 -0.2391
  979SOL    HW1 2936   2.276   1.264   0.277  0.2724 -1.6148  0.3673
  979SOL    HW2 2937   2.353   1.342   0.407 -0.2649 -1.7540 -1.3122
  980SOL     OW 2938   0.903   1.971   2.200  0.1771 -0.1341  0.1342
  980SOL    HW1 2939   0.863   1.908   2.128 -0.7391  1.5276 -0.0434
  980SOL    HW2 2940   0.853   1.951   2.290  3.0071  2.4680 -0.7544
  981SOL     OW 2941   2.600   1.655   2.707 -0.1148 -0.3642  0.2118
  981SOL    HW1 2942   2.679   1.661   2.774 -0.4393 -1.0588  1.0485
  981SOL    HW2 2943   2.593   1.554   2.681 -1.6230  1.0425 -0.6651
  982SOL     OW 2944   0.478   2.571   2.017 -0.0087 -0.5100 -0.6037
  982SOL    HW1 2945   0.477   2.673   1.999 -1.1300 -1.9837 -0.0442
  982SOL    HW2 2946   0.478   2.557   2.119 -2.4162 -0.8297  0.5605
  983SOL     OW 2947   1.811   3.215   2.392 -0.3646 -0.0056 -0.2440
  983SOL    HW1 2948   1.792   3.305   2.347 -0.8800 -0.9545  1.7280
  983SOL    HW2 2949   1.797   3.138   2.325  2.9795  0.7157 -2.4571
  984SOL     OW 2950   3.608   0.199   3.310  0.3642 -0.0126 -0.3744
  984SOL    HW1 2951   3.580   0.265   3.383 -1.0126  2.2439  2.5104
  984SOL    HW2 2952   3.580   0.104   3.337 -1.4733 -2.6926  1.3956
  985SOL     OW 2953   1.746   1.599   2.126 -0.3544 -0.2902 -0.2264
  985SOL    HW1 2954   1.799   1.607   2.037 -1.8914 -1.1869 -2.3891
  985SOL    HW2 2955   1.674   1.526   2.126 -1.0611 -2.3712 -3.8754
  986SOL     OW 2956   2.055   0.531   0.011 -0.8427 -0.7100 -0.4595
  986SOL    HW1 2957   2.146   0.581   0.020  0.0580  1.3296 -1.9118
  986SOL    HW2 2958   1.982   0.585  -0.038 -0.1175 -2.5609 -1.6764
  987SOL     OW 2959   0.296   2.670   2.944 -0.3407 -0.3328  0.8596
  987SOL    HW1 2960   0.383   2.714   2.980 -1.7144 -0.8120 -0.8002
  987SOL    HW2 2961   0.282   2.580   2.992  1.2140 -0.1427  0.5956
  988SOL     OW 2962   3.355   0.301   1.846  0.3061  0.3262 -0.4098
  988SOL    HW1 2963   3.443   0.253   1.819 -1.0730 -0.8016 -2.3196
  988SOL    HW2 2964   3.278   0.277   1.784 -0.0760 -1.4703 -0.5274
  989SOL     OW 2965   2.429   3.624   1.178  0.0793  0.3536  0.4686
  989SOL    HW1 2966   2.438   3.546   1.110  0.8370 -1.4390 -0.8863
  989SOL    HW2 2967   2.488   3.702   1.141  0.9480 -0.5461  2.0987
  990SOL     OW 2968   3.283   1.009   0.231 -0.4438 -0.3304  0.4627
  990SOL    HW1 2969   3.298   1.074   0.153 -1.4125  0.1553 -3.1720
  990SOL    HW2 2970   3.303   0.912   0.202  0.7312  0.7948  0.8933
  991SOL     OW 2971   0.336   1.218   0.735  0.2059  0.0027 -0.1732
  991SOL    HW1 2972   0.264   1.292   0.730 -0.3677 -0.6723  0.6617
  991SOL    HW2 2973   0.390   1.227   0.822  1.6191  1.8516 -1.5568
  992SOL     OW 2974   2.110   1.890   1.788  0.1157 -0.1154 -0.7053
  992SOL    HW1 2975   2.079   1.980   1.746 -1.4962  0.4591 -2.2802
  992SOL    HW2 2976   2.139   1.906   1.886 -1.9555 -0.7203 -1.5100
  993SOL     OW 2977   3.472   2.836   1.137  0.4984  0.2833 -0.0766
  993SOL    HW1 2978   3.511   2.768   1.205 -1.2159  0.8017 -1.4577
  993SOL    HW2 2979   3.406   2.790   1.073 -2.1973 -0.9188 -0.6332
  994SOL     OW 2980   3.611   2.162   1.511 -0.3297  0.5166 -0.2758
  994SOL    HW1 2981   3.509   2.181   1.515 -0.1070 -0.5433 -0.0248
  994SOL    HW2 2982   3.651   2.169   1.607  0.5285  0.0109  0.3514
  995SOL     OW 2983   2.433   1.418   3.318  0.8052 -0.6855  0.1196
  995SOL    HW1 2984   2.383   1.339   3.362 -1.5190  1.6560 -0.5464
  995SOL    HW2 2985   2.406   1.509   3.357 -0.0988 -0.4512  0.7581
  996SOL     OW 2986   2.150   2.833   0.634  0.3492  0.1620 -0.1001
  996SOL    HW1 2987   2.127   2.819   0.535  1.5533  0.9490 -0.9092
  996SOL    HW2 2988   2.209   2.759   0.674  1.5807  1.3344  1.6367
  997SOL     OW 2989   1.715   1.853   2.259  0.0518 -0.1367 -0.2696
  997SOL    HW1 2990   1.647   1.908   2.205 -0.5207 -1.0180 -0.2831
  997SOL    HW2 2991   1.729   1.761   2.215 -0.4254  2.1770  1.5259
  998SOL     OW 2992   3.583   3.036   0.589  0.1436 -0.5705 -0.3572
  998SOL    HW1 2993   3.604   2.940   0.617  0.8273 -1.1697  1.0751
  998SOL    HW2 2994   3.580   3.100   0.671  1.3864  1.6053  0.7073
  999SOL     OW 2995   0.723   3.561   0.096  0.1771  1.1535  0.1445
  999SOL    HW1 2996   0.692   3.476   0.050  1.4296  0.6521  0.4184
  999SOL    HW2 2997   0.723   3.644   0.034 -2.5195  0.2629  2.5403
 1000SOL     OW 2998   1.045   0.256   0.089  0.2647 -0.3083  0.0153
 1000SOL    HW1 2999   1.138   0.300   0.082  1.3286  0.7338 -1.9027
 1000SOL    HW2 3000   1.002   0.265  -0.004  0.6288  2.4762 -1.1206
   3.63593   3.63593   3.63593
