1000 SPC/Fw water molecules
 3000
    1SOL     OW    1   1.546   2.381   0.137 -0.0640  0.2147  0.2040
    1SOL    HW1    2   1.639   2.379   0.090 -2.8499 -2.8170 -2.3499
    1SOL    HW2    3   1.556   2.403   0.237 -1.1670  1.5340  0.6929
    2SOL     OW    4   1.594   0.717   1.530  0.5208 -0.1735 -0.1477
    2SOL    HW1    5   1.592   0.713   1.628  0.4619 -0.1059 -4.2244
    2SOL    HW2    6   1.679   0.672   1.488 -1.1242 -0.6887  0.0531
    3SOL     OW    7   1.165   3.095   2.432 -0.1024 -0.0723 -0.3789
    3SOL    HW1    8   1.153   2.993   2.414 -1.4656  0.2342 -3.2186
    3SOL    HW2    9   1.111   3.123   2.512 -0.7981 -2.3094  3.5244
    4SOL     OW   10   1.355   1.047   0.315 -0.4958 -0.7834  0.6326
    4SOL    HW1   11   1.436   1.078   0.369 -1.4719 -0.4888 -0.8184
    4SOL    HW2   12   1.388   0.998   0.230  0.5147 -1.0489 -0.2877
    5SOL     OW   13   0.114   0.834   2.881  0.2989  0.1868  0.0898
    5SOL    HW1   14   0.087   0.829   2.780  1.3065  0.2508  0.6340
    5SOL    HW2   15   0.164   0.753   2.914 -1.9421 -0.0102 -0.9760
    6SOL     OW   16   2.431   0.783   2.313  0.6385 -0.4937 -0.4588
    6SOL    HW1   17   2.416   0.860   2.248  0.8700  0.8470 -1.4189
    6SOL    HW2   18   2.533   0.755   2.303  1.4909 -0.4093  0.5132
    7SOL     OW   19   2.338   0.783   1.088  0.4222  0.2601 -0.5547
    7SOL    HW1   20   2.420   0.757   1.146  0.7934  3.4034 -1.9093
    7SOL    HW2   21   2.359   0.867   1.038 -0.0565  0.0160 -0.6662
    8SOL     OW   22   2.897   2.418   2.302  0.4296 -0.7019 -0.6573
    8SOL    HW1   23   2.894   2.369   2.387  3.0935  0.4301 -0.0251
    8SOL    HW2   24   2.953   2.499   2.324 -1.7719  1.3202 -0.9913
    9SOL     OW   25   0.312   2.486   3.014 -0.1966  0.2576 -0.2473
    9SOL    HW1   26   0.336   2.428   2.935  0.9559 -0.5296 -1.9701
    9SOL    HW2   27   0.382   2.467   3.085  0.8742  0.8044  2.6595
   10SOL     OW   28   0.765   2.694   2.440  0.3449  0.0751  0.0084
   10SOL    HW1   29   0.749   2.708   2.339  1.6789 -1.9610  0.3576
   10SOL    HW2   30   0.831   2.766   2.483  0.8337  0.1627  1.7772
   11SOL     OW   31   0.329   1.401   0.137 -0.3702  0.2698 -0.2266
   11SOL    HW1   32   0.332   1.316   0.080  3.1559 -1.7073  0.7758
   11SOL    HW2   33   0.386   1.396   0.218  1.2661  0.2501  3.1985
   12SOL     OW   34   2.877   2.368   0.660  0.6118 -0.2689 -0.0624
   12SOL    HW1   35   2.841   2.290   0.610 -2.1585  1.7088  2.6057
   12SOL    HW2   36   2.829   2.453   0.628 -1.3531 -1.4610 -1.6958
   13SOL     OW   37   3.011   3.017   3.059  0.1864  0.2203  0.2575
   13SOL    HW1   38   2.961   3.021   2.969 -2.0470  1.1737 -3.0906
   13SOL    HW2   39   3.066   2.932   3.071 -0.6832  2.6381  1.6792
   14SOL     OW   40   1.831   0.027   1.393  0.0313  0.0985 -0.0150
   14SOL    HW1   41   1.901   0.092   1.357  0.1889  0.5744 -0.9922
   14SOL    HW2   42   1.809  -0.040   1.315 -1.6050  0.8298  2.0104
   15SOL     OW   43   0.923   1.163   2.239 -0.7554 -0.9294  0.6753
   15SOL    HW1   44   0.926   1.187   2.140 -3.2035 -0.1596 -1.2012
   15SOL    HW2   45   0.939   1.247   2.302  0.3064  0.8694 -1.7584
   16SOL     OW   46   2.277   0.352   0.104 -0.2660  0.1560 -0.8742
   16SOL    HW1   47   2.318   0.431   0.056  1.8727  2.2123 -2.7948
   16SOL    HW2   48   2.348   0.275   0.115  2.8816  2.4178 -0.5167
   17SOL     OW   49   0.206   1.765   2.656 -0.4203 -0.4633  0.2266
   17SOL    HW1   50   0.146   1.737   2.574  1.4633  2.2526 -1.3551
   17SOL    HW2   51   0.229   1.681   2.706 -0.0189  0.6602  0.4310
   18SOL     OW   52   1.764   0.939   0.318 -0.1799 -0.0562 -0.4797
   18SOL    HW1   53   1.710   0.875   0.263 -2.3720  0.7726 -0.0752
   18SOL    HW2   54   1.742   0.929   0.417  0.7266  0.2775 -0.0261
   19SOL     OW   55   2.711   1.523   2.277  0.4276  0.4183 -0.0888
   19SOL    HW1   56   2.695   1.426   2.244 -2.4317 -0.6796  2.8794
   19SOL    HW2   57   2.629   1.565   2.328  0.3685  1.5503  0.9080
   20SOL     OW   58   2.639   2.615   2.774  0.2108 -0.0178  1.0768
   20SOL    HW1   59   2.720   2.604   2.833 -1.0764  1.9474  1.3424
   20SOL    HW2   60   2.662   2.682   2.701  1.2901  0.2758 -0.5977
   21SOL     OW   61   1.514   1.453   0.885 -0.1943  0.0418 -0.6226
   21SOL    HW1   62   1.608   1.424   0.905 -0.1302  0.0332  2.0295
   21SOL    HW2   63   1.478   1.410   0.798  0.0986  1.0341 -0.0954
   22SOL     OW   64   2.058   2.712   1.007 -0.4733  0.2110  0.2974
   22SOL    HW1   65   2.020   2.780   0.946 -0.0139  2.4404  0.7864
   22SOL    HW2   66   2.129   2.651   0.967 -0.6997  0.9678 -1.6365
   23SOL     OW   67   2.714   0.496   1.355 -0.1418  0.0131 -0.4545
   23SOL    HW1   68   2.769   0.575   1.388  0.1362 -2.3512  1.6469
   23SOL    HW2   69   2.772   0.437   1.297  3.0142  2.6430 -0.2806
   24SOL     OW   70   2.248   1.528   1.018 -0.6265  0.0291  0.2978
   24SOL    HW1   71   2.275   1.450   1.077 -0.3678 -0.7989 -0.9512
   24SOL    HW2   72   2.329   1.554   0.960 -2.0862 -0.3145  0.7172
   25SOL     OW   73   1.495   0.717   2.376  0.2627 -0.2747 -0.0928
   25SOL    HW1   74   1.399   0.717   2.349 -1.5998 -0.3509 -0.2504
   25SOL    HW2   75   1.553   0.745   2.299  1.1087  1.7385 -0.4560
   26SOL     OW   76   2.305   1.617   2.894 -0.0079  0.1520  0.6671
   26SOL    HW1   77   2.286   1.719   2.896  0.1691  0.7364 -0.8544
   26SOL    HW2   78   2.244   1.571   2.824  1.7309  1.6721  0.7960
   27SOL     OW   79   1.441   1.038   0.934  0.3143  0.3119  0.4519
   27SOL    HW1   80   1.415   1.120   0.989 -0.1091 -0.1134 -0.7271
   27SOL    HW2   81   1.424   0.952   0.989 -2.9520  0.8240 -0.8903
   28SOL     OW   82   1.649   3.068   0.379 -0.9778 -0.2303 -0.2175
   28SOL    HW1   83   1.679   3.017   0.297  1.5384 -0.4926  1.7786
   28SOL    HW2   84   1.715   3.135   0.421  0.1557  0.9173  1.9716
   29SOL     OW   85   1.881   2.964   2.144 -0.2026 -0.1038  0.2820
   29SOL    HW1   86   1.912   2.974   2.245  0.0988 -1.6405  0.4438
   29SOL    HW2   87   1.967   2.962   2.087  0.3411 -2.6522 -0.6414
   30SOL     OW   88   0.145   3.007   2.446  0.1964 -0.1302 -0.0583
   30SOL    HW1   89   0.170   3.068   2.523  2.3672  0.6008  0.5313
   30SOL    HW2   90   0.122   3.061   2.362  0.4057  0.1321 -0.0316
   31SOL     OW   91   0.135   2.913   0.232  0.7807  0.4553 -0.3672
   31SOL    HW1   92   0.081   2.856   0.312 -1.1572  0.6975  0.4766
   31SOL    HW2   93   0.099   2.873   0.145  1.5216 -1.6506  0.1343
   32SOL     OW   94   1.174   3.092   1.542  0.0584 -0.3958 -0.4165
   32SOL    HW1   95   1.190   3.072   1.441  3.0233  1.1045 -1.2498
   32SOL    HW2   96   1.204   3.191   1.569 -0.9845  0.1289  0.7188
   33SOL     OW   97   0.450   0.248   2.902  0.2964 -0.6501  0.4535
   33SOL    HW1   98   0.493   0.337   2.930  1.5356  3.5075  1.9345
   33SOL    HW2   99   0.493   0.200   2.826 -0.1737 -0.0765  1.7265
   34SOL     OW  100   0.479   0.720   1.043  0.0894  0.4084 -0.3419
   34SOL    HW1  101   0.520   0.712   1.138  0.7077  0.9210  0.2301
   34SOL    HW2  102   0.545   0.759   0.978  0.2312  1.1396 -1.3418
   35SOL     OW  103   0.369   2.902   1.396 -0.5776 -0.1022 -0.1555
   35SOL    HW1  104   0.286   2.931   1.444  0.2493 -1.3102  0.0989
   35SOL    HW2  105   0.433   2.982   1.383 -1.2081 -1.1744  0.3780
   36SOL     OW  106   1.847   2.911   2.766 -0.1389  0.5119 -0.5838
   36SOL    HW1  107   1.918   2.988   2.753 -1.8235 -0.0506 -0.8256
   36SOL    HW2  108   1.885   2.840   2.827 -0.6359 -3.0921  0.8285
   37SOL     OW  109   1.715   1.081   0.951  0.4027  0.6385  0.3503
   37SOL    HW1  110   1.621   1.079   0.909 -0.4673  1.0326  0.3773
   37SOL    HW2  111   1.761   0.993   0.935 -1.0044 -1.2394  1.3755
   38SOL     OW  112   2.692   0.364   0.901 -0.2031 -0.4054 -0.5425
   38SOL    HW1  113   2.692   0.355   0.802 -0.2373  0.1924  1.0448
   38SOL    HW2  114   2.775   0.415   0.939 -0.5147 -1.7691 -0.7344
   39SOL     OW  115   0.925   1.821   1.602 -0.0104  0.7597 -0.2095
   39SOL    HW1  116   1.027   1.843   1.600  0.1275 -0.5589 -1.2094
   39SOL    HW2  117   0.908   1.718   1.596 -2.0642  1.2840  1.7886
   40SOL     OW  118   2.289   1.185   3.047 -0.4610  0.6200  0.3571
   40SOL    HW1  119   2.382   1.194   3.003 -0.1814  1.8527  1.5852
   40SOL    HW2  120   2.236   1.110   3.008  0.2277  0.2822  4.4926
   41SOL     OW  121   1.501   0.201   2.026 -0.1224 -0.0446 -0.5879
   41SOL    HW1  122   1.511   0.253   2.111  0.9379  3.2848  0.0955
   41SOL    HW2  123   1.572   0.132   2.011  2.8314 -1.4674  1.6000
   42SOL     OW  124   2.693   2.553   0.953 -0.0863  0.4278  0.0700
   42SOL    HW1  125   2.726   2.638   0.996 -0.0797  0.7037 -0.0169
   42SOL    HW2  126   2.753   2.470   0.964  3.1241  0.0206  0.9755
   43SOL     OW  127   2.270   2.530   0.971  0.0354  0.3695 -0.3804
   43SOL    HW1  128   2.369   2.563   0.954 -2.5688 -1.1594  3.7106
   43SOL    HW2  129   2.228   2.502   0.878 -0.5464 -0.2194  0.3870
   44SOL     OW  130   3.029   0.446   0.631 -0.0662 -0.0541 -0.4847
   44SOL    HW1  131   3.055   0.372   0.566 -0.6364  0.6407 -2.5331
   44SOL    HW2  132   2.939   0.484   0.609  2.8026 -0.4530  1.9805
   45SOL     OW  133   0.426   1.712   1.825 -0.0899 -0.1698 -0.3726
   45SOL    HW1  134   0.358   1.736   1.898  4.0845 -0.4862  1.7087
   45SOL    HW2  135   0.398   1.753   1.736 -2.0414  0.5284  0.5621
   46SOL     OW  136   1.267   2.089   1.898 -0.4327  0.2907  0.2808
   46SOL    HW1  137   1.172   2.111   1.872  0.7382 -1.0698 -2.0005
   46SOL    HW2  138   1.328   2.164   1.861 -0.7698  2.7830 -0.5764
   47SOL     OW  139   0.327   2.452   0.343 -0.5042 -0.1165  0.0028
   47SOL    HW1  140   0.372   2.537   0.380 -1.3719  0.8251  1.8121
   47SOL    HW2  141   0.346   2.369   0.398  0.5062 -0.9216  0.6799
   48SOL     OW  142   0.454   2.028   2.462  0.1381 -0.4545  0.3235
   48SOL    HW1  143   0.352   2.037   2.448 -1.8348 -0.3768 -0.5676
   48SOL    HW2  144   0.464   1.963   2.544  3.1649  1.8136  0.4715
   49SOL     OW  145   2.517   2.625   2.350  0.3210 -0.1656  1.3088
   49SOL    HW1  146   2.426   2.603   2.392  0.3339 -2.4023 -0.1576
   49SOL    HW2  147   2.552   2.551   2.289 -0.6411  0.4899  1.5579
   50SOL     OW  148   0.854   2.619   0.256 -0.0889  0.0268  0.6768
   50SOL    HW1  149   0.803   2.593   0.174  1.2229 -0.0751  0.5848
   50SOL    HW2  150   0.931   2.556   0.286 -0.0185  0.4239 -0.6567
   51SOL     OW  151   0.682   2.632   0.910 -0.3823 -0.4451  0.3071
   51SOL    HW1  152   0.757   2.592   0.962 -3.6617  3.0738  0.4946
   51SOL    HW2  153   0.632   2.549   0.874  1.3958  1.9366  0.9624
   52SOL     OW  154   0.440   0.697   0.043  0.0141 -0.3617 -0.4137
   52SOL    HW1  155   0.417   0.643   0.126  2.0863  0.2339 -2.1735
   52SOL    HW2  156   0.541   0.697   0.029 -3.2569  1.9433  1.9401
   53SOL     OW  157   0.459   2.475   2.588  0.4781 -0.4370 -0.0070
   53SOL    HW1  158   0.512   2.403   2.537 -0.0928  2.1201 -0.8818
   53SOL    HW2  159   0.518   2.536   2.643  0.1097 -2.9700 -2.2227
   54SOL     OW  160   1.097   1.125   2.785 -0.5390  0.3570 -0.1436
   54SOL    HW1  161   1.064   1.137   2.882 -0.0749  0.9033 -0.9696
   54SOL    HW2  162   1.026   1.153   2.718 -0.9275 -4.6350  2.6804
   55SOL     OW  163   1.382   0.161   0.693  0.1540 -0.1392 -0.4832
   55SOL    HW1  164   1.461   0.217   0.709  2.0591  3.0785 -1.6701
   55SOL    HW2  165   1.353   0.156   0.595  2.3574  0.7093 -0.2649
   56SOL     OW  166   1.721   0.735   2.846  0.3183 -0.1561 -0.2569
   56SOL    HW1  167   1.694   0.663   2.915 -0.9011  0.1907 -1.1143
   56SOL    HW2  168   1.695   0.713   2.751 -0.8237  2.2507 -0.4762
   57SOL     OW  169   2.172   1.114   1.859 -0.4792  0.6038  0.3216
   57SOL    HW1  170   2.268   1.095   1.830 -0.6571  1.5937  1.1025
   57SOL    HW2  171   2.166   1.210   1.893 -0.0177  0.6407  0.6061
   58SOL     OW  172   0.505   1.198   2.020 -0.1000 -0.3268  0.6418
   58SOL    HW1  173   0.509   1.105   2.064  0.2461 -0.1243  3.4963
   58SOL    HW2  174   0.569   1.199   1.939 -0.0235  0.8660 -2.7150
   59SOL     OW  175   0.760   0.218   2.409 -0.2416 -0.5321 -0.2942
   59SOL    HW1  176   0.670   0.248   2.444  0.6206  0.6739 -1.9564
   59SOL    HW2  177   0.804   0.292   2.350  0.0532 -2.4808 -0.8010
   60SOL     OW  178   2.833   2.195   2.974  0.0933 -0.0845 -0.2660
   60SOL    HW1  179   2.851   2.164   3.070 -0.1800  0.3179 -0.8315
   60SOL    HW2  180   2.912   2.241   2.931 -0.4331  1.0091 -1.9590
   61SOL     OW  181   1.213   0.020   2.758 -0.0347  0.6594  0.2601
   61SOL    HW1  182   1.177   0.115   2.788 -0.0473  1.5198 -1.4889
   61SOL    HW2  183   1.311   0.026   2.735  0.6522 -2.4194 -1.0896
   62SOL     OW  184   1.598   2.891   2.903 -0.3122  0.7452 -0.3464
   62SOL    HW1  185   1.541   2.873   2.982 -2.6447 -0.1426  0.1669
   62SOL    HW2  186   1.649   2.813   2.866 -2.3268  1.3491  0.7524
   63SOL     OW  187   3.074   2.922   0.648  0.4869  0.0805 -0.3962
   63SOL    HW1  188   2.979   2.949   0.620  0.5070 -0.1891 -0.0263
   63SOL    HW2  189   3.063   2.858   0.724 -1.8825 -0.0959 -2.6445
   64SOL     OW  190   2.689   1.730   0.641  0.4391 -0.2230 -0.1047
   64SOL    HW1  191   2.605   1.693   0.597  1.0355 -2.0091  0.2747
   64SOL    HW2  192   2.771   1.685   0.597 -0.0841 -1.6443  1.2117
   65SOL     OW  193   0.459   0.085   2.058 -0.3615 -0.3044 -0.3581
   65SOL    HW1  194   0.549   0.122   2.035 -1.8032 -0.1319  0.6173
   65SOL    HW2  195   0.432   0.108   2.154  0.3461 -0.1129 -1.2372
   66SOL     OW  196   1.783   0.565   1.410 -0.1808  0.1107 -0.1547
   66SOL    HW1  197   1.729   0.536   1.326  1.5506  2.7498  0.1108
   66SOL    HW2  198   1.883   0.573   1.387  1.2232 -0.3800  0.2543
   67SOL     OW  199   0.703   2.376   1.113  0.1594  0.0039  0.4216
   67SOL    HW1  200   0.653   2.398   1.198 -0.9393  1.0700  1.3445
   67SOL    HW2  201   0.781   2.313   1.135  2.0287  0.0969  0.7025
   68SOL     OW  202   0.567   0.722   1.293 -0.2754 -0.1898  0.1301
   68SOL    HW1  203   0.501   0.691   1.363  0.3057  0.1605 -2.5140
   68SOL    HW2  204   0.662   0.706   1.334 -1.9330 -0.7034 -0.9643
   69SOL     OW  205   2.701   0.857   0.165  1.0387 -0.2702  0.1497
   69SOL    HW1  206   2.675   0.932   0.104  0.1323 -2.0815 -0.5790
   69SOL    HW2  207   2.740   0.778   0.115 -2.0743  0.2552 -0.1641
   70SOL     OW  208   2.662   3.049   2.645 -0.1900 -0.6365  0.0226
   70SOL    HW1  209   2.654   2.951   2.608 -0.7085 -0.0545 -2.5088
   70SOL    HW2  210   2.697   3.117   2.575 -3.7118 -0.7305  1.4230
   71SOL     OW  211   1.857   1.653   1.515 -0.2242 -0.3573 -0.0267
   71SOL    HW1  212   1.894   1.607   1.599 -1.1245 -0.9803 -2.1592
   71SOL    HW2  213   1.772   1.708   1.539  2.1655 -1.4614  1.0322
   72SOL     OW  214   2.517   2.296   0.462 -0.0717  0.1046  0.8269
   72SOL    HW1  215   2.462   2.292   0.547  0.4896 -2.2038  1.3622
   72SOL    HW2  216   2.610   2.258   0.478  0.6833 -0.8044  0.0461
   73SOL     OW  217   1.370   2.531   0.001 -0.2244  0.3045  0.2332
   73SOL    HW1  218   1.415   2.536  -0.089 -0.2785  0.0162 -0.1917
   73SOL    HW2  219   1.425   2.471   0.068 -3.2109  2.1452 -1.0279
   74SOL     OW  220   1.609   1.958   2.608 -0.2835  0.0769  0.1734
   74SOL    HW1  221   1.571   2.007   2.531  0.6871 -0.6940 -1.0828
   74SOL    HW2  222   1.578   1.865   2.623  0.2815 -0.0211 -1.2081
   75SOL     OW  223   1.757   1.325   2.403  0.0787  0.1226  0.1163
   75SOL    HW1  224   1.808   1.275   2.480 -0.7760  2.5270 -1.6958
   75SOL    HW2  225   1.741   1.269   2.321  0.4203 -0.4165  1.3563
   76SOL     OW  226   0.571   2.384   0.879 -0.2040 -0.4829  0.2092
   76SOL    HW1  227   0.634   2.353   0.953 -1.6318  0.6560  2.0685
   76SOL    HW2  228   0.478   2.339   0.880  2.1940 -0.6263 -0.0551
   77SOL     OW  229   2.501   0.023   1.780  0.0213 -0.2384 -0.0686
   77SOL    HW1  230   2.459  -0.027   1.700  1.0607  0.3335  1.9033
   77SOL    HW2  231   2.542  -0.048   1.842 -0.8212  1.9005 -1.3976
   78SOL     OW  232   1.579   0.328   0.062  0.0703 -0.3288 -0.2540
   78SOL    HW1  233   1.554   0.274  -0.025  1.1932 -0.1594  0.8142
   78SOL    HW2  234   1.535   0.286   0.144  1.0524 -3.1680  0.4124
   79SOL     OW  235   1.063   1.006   1.154 -0.6461  0.7980 -0.2394
   79SOL    HW1  236   1.005   0.949   1.218  0.5229  0.3627 -2.4994
   79SOL    HW2  237   1.027   1.098   1.140 -0.6200  4.2030  1.5280
   80SOL     OW  238   1.149   0.637   1.446 -0.4251 -0.4703  0.0153
   80SOL    HW1  239   1.151   0.558   1.379  2.6587  0.6281  3.7068
   80SOL    HW2  240   1.227   0.700   1.431  2.4607 -2.1208  0.7263
   81SOL     OW  241   2.687   2.036   2.483 -0.4669 -0.1393 -0.1809
   81SOL    HW1  242   2.690   2.063   2.582 -1.9360  0.8066 -1.0490
   81SOL    HW2  243   2.780   2.012   2.447 -3.8246 -3.3887  0.7930
   82SOL     OW  244   1.460   1.030   1.314  0.2674 -0.0142 -0.0347
   82SOL    HW1  245   1.550   0.982   1.314 -4.4750 -0.8487 -0.1233
   82SOL    HW2  246   1.469   1.124   1.276 -4.1721 -0.4588 -1.9367
   83SOL     OW  247   3.073   2.205   0.070  0.0996 -0.2436 -0.1663
   83SOL    HW1  248   2.981   2.210   0.115 -0.5615  2.4644  1.5300
   83SOL    HW2  249   3.112   2.297   0.050 -1.0032  0.1556 -2.1067
   84SOL     OW  250   3.085   2.044   0.631  0.1849 -0.2435  0.2879
   84SOL    HW1  251   3.100   2.131   0.675  1.6291 -0.7554 -0.6058
   84SOL    HW2  252   3.153   2.044   0.556  2.5394  0.6164 -0.6403
   85SOL     OW  253   3.016   1.239   0.653  0.5119 -0.4942  0.0918
   85SOL    HW1  254   3.073   1.319   0.611 -0.5482  0.7792 -0.8561
   85SOL    HW2  255   3.005   1.167   0.581 -1.6059  0.6219 -0.7431
   86SOL     OW  256   1.235   2.245   2.480  0.7075  0.7271 -0.2643
   86SOL    HW1  257   1.243   2.149   2.444  1.0671 -0.4639  0.3735
   86SOL    HW2  258   1.172   2.302   2.422 -1.6622 -3.6872  1.1637
   87SOL     OW  259   1.992   1.457   1.077 -0.3724  0.4429  0.3640
   87SOL    HW1  260   1.966   1.519   1.155  2.8751 -0.1806  0.0827
   87SOL    HW2  261   2.071   1.494   1.024  1.3189  0.7566 -1.9103
   88SOL     OW  262   0.321   0.259   1.190 -0.4087  0.4080 -0.3587
   88SOL    HW1  263   0.293   0.190   1.115 -1.6465  0.9053 -0.2663
   88SOL    HW2  264   0.416   0.258   1.196 -2.4738  0.3256  0.3887
   89SOL     OW  265   2.968   1.533   1.946 -0.0939  0.4340 -0.7279
   89SOL    HW1  266   2.909   1.598   2.004  0.1735  1.6612 -0.3230
   89SOL    HW2  267   2.969   1.565   1.854 -3.6380  1.9982  0.6799
   90SOL     OW  268   0.149   0.595   1.456 -0.0149 -0.0913  0.3537
   90SOL    HW1  269   0.088   0.539   1.395  1.5058  3.0833 -2.2451
   90SOL    HW2  270   0.163   0.686   1.416  0.4670  2.0518 -1.7101
   91SOL     OW  271   3.012   2.044   1.566 -0.2079  0.3413  0.2536
   91SOL    HW1  272   3.056   2.118   1.517 -0.0119  0.1408 -0.1975
   91SOL    HW2  273   2.908   2.058   1.568 -1.9595  0.1238 -3.4235
   92SOL     OW  274   2.269   0.585   2.331 -0.1577 -0.2843  0.0408
   92SOL    HW1  275   2.327   0.669   2.322 -0.9554  1.9902  1.1700
   92SOL    HW2  276   2.272   0.538   2.240  0.1564 -1.1966  0.0432
   93SOL     OW  277   0.493   2.066   2.810 -0.0867 -0.5539 -0.1076
   93SOL    HW1  278   0.477   1.982   2.752 -2.2678  0.5676 -2.5625
   93SOL    HW2  279   0.588   2.095   2.810  0.2106 -1.4998 -1.9706
   94SOL     OW  280   0.126   1.068   1.957 -0.4195 -0.0607 -0.0133
   94SOL    HW1  281   0.195   0.997   1.933  1.0500  0.7735 -0.5421
   94SOL    HW2  282   0.168   1.150   2.000  2.2945 -0.3236 -0.9275
   95SOL     OW  283   2.134   2.929   2.007 -0.5049  0.3605  0.1733
   95SOL    HW1  284   2.166   2.832   2.015 -0.3205  0.7694 -1.7706
   95SOL    HW2  285   2.096   2.942   1.914  1.3230 -0.8408 -0.3233
   96SOL     OW  286   0.255   1.280   2.084  0.2824 -0.3659  0.0669
   96SOL    HW1  287   0.222   1.373   2.052  2.0410  2.1689 -1.6159
   96SOL    HW2  288   0.348   1.271   2.042 -2.2942  2.0512 -1.1121
   97SOL     OW  289   0.104   0.408   1.673  0.0532 -0.2987  0.3046
   97SOL    HW1  290   0.093   0.497   1.628  1.1439  1.2356  2.2446
   97SOL    HW2  291   0.055   0.336   1.620 -2.2887  1.2264 -2.2824
   98SOL     OW  292   0.815   1.978   2.214  0.5896 -0.0123  0.3838
   98SOL    HW1  293   0.785   2.068   2.182  1.1156  1.7416  2.9433
   98SOL    HW2  294   0.884   1.994   2.286  2.3361 -0.4482 -0.3954
   99SOL     OW  295   0.082   1.863   1.489  0.3691 -0.2513  0.0309
   99SOL    HW1  296   0.003   1.919   1.526  0.5597  1.1452 -1.6889
   99SOL    HW2  297   0.132   1.916   1.418  3.2315  0.1199  1.9003
  100SOL     OW  298   2.325   2.246   2.678 -0.7463 -0.5333  0.7585
  100SOL    HW1  299   2.304   2.148   2.709  0.9168 -0.1392 -1.4368
  100SOL    HW2  300   2.399   2.289   2.739  2.8241 -0.1979 -0.7938
  101SOL     OW  301   1.281   2.941   0.192 -0.2510 -0.8496  0.6939
  101SOL    HW1  302   1.206   2.887   0.155 -0.3129  0.4151 -0.5684
  101SOL    HW2  303   1.273   2.939   0.296  1.6862 -1.3985 -1.7307
  102SOL     OW  304   1.895   0.542   1.068 -0.0633 -0.3533  0.1070
  102SOL    HW1  305   1.907   0.623   1.003  1.4611  0.9110  1.0478
  102SOL    HW2  306   1.918   0.568   1.164  1.4292 -0.0787  1.9550
  103SOL     OW  307   3.019   2.677   2.241 -0.1929  0.3934 -0.2794
  103SOL    HW1  308   3.103   2.730   2.221  1.6623  2.3210 -0.2700
  103SOL    HW2  309   2.975   2.642   2.152 -0.5888  1.1181 -0.8087
  104SOL     OW  310   0.490   0.495   1.884 -0.1606  0.7462  0.0946
  104SOL    HW1  311   0.526   0.435   1.811  0.1187  0.1668 -1.7688
  104SOL    HW2  312   0.406   0.455   1.928  1.4671 -2.3003 -0.1039
  105SOL     OW  313   2.795   1.447   2.957  0.4757 -0.1278 -0.2296
  105SOL    HW1  314   2.817   1.546   2.983 -0.7208 -0.5830 -0.9140
  105SOL    HW2  315   2.712   1.443   2.893 -2.1762  2.0100  0.7166
  106SOL     OW  316   2.534   0.078   2.861  0.1632 -0.0452 -0.0270
  106SOL    HW1  317   2.564   0.035   2.947 -2.5151 -0.0032 -3.1646
  106SOL    HW2  318   2.571   0.037   2.778 -2.4434 -2.6124  0.0478
  107SOL     OW  319   2.841   1.501   0.991  0.5419  0.2066  0.2833
  107SOL    HW1  320   2.886   1.411   0.975  1.9946 -3.3306  0.2347
  107SOL    HW2  321   2.837   1.518   1.089  2.7885  0.2078  0.0875
  108SOL     OW  322   1.939   2.182   2.642 -0.2836  0.3560 -0.0345
  108SOL    HW1  323   1.902   2.156   2.549  2.3137 -2.2537 -1.1137
  108SOL    HW2  324   1.972   2.272   2.644 -2.3438 -1.2871  3.2423
  109SOL     OW  325   2.409   2.732   2.822 -0.8165  0.3529 -0.1027
  109SOL    HW1  326   2.500   2.689   2.788  0.0496  0.3640  0.5285
  109SOL    HW2  327   2.362   2.770   2.741  0.9513  2.1476 -2.1735
  110SOL     OW  328   0.473   1.841   2.661 -0.7248  0.1752  0.0363
  110SOL    HW1  329   0.529   1.780   2.720 -0.0095  3.3318 -2.3743
  110SOL    HW2  330   0.375   1.821   2.675 -0.3884  0.3155  1.8130
  111SOL     OW  331   2.539   1.844   2.734 -0.2924 -0.3989 -0.8860
  111SOL    HW1  332   2.468   1.838   2.810 -2.7893  1.1443 -0.6120
  111SOL    HW2  333   2.505   1.892   2.650 -0.2930 -0.9144  0.7861
  112SOL     OW  334   2.109   2.171   0.884 -0.1956  0.1055 -0.1198
  112SOL    HW1  335   2.114   2.118   0.799 -1.8694  2.1446  0.4650
  112SOL    HW2  336   2.185   2.142   0.950 -2.7915 -1.1005 -3.1106
  113SOL     OW  337   2.503   0.189   0.105  0.8691  0.5365 -0.1727
  113SOL    HW1  338   2.522   0.101   0.057 -1.0316 -1.1585 -1.0406
  113SOL    HW2  339   2.594   0.233   0.112 -1.9642  1.4752 -1.6086
  114SOL     OW  340   1.360   2.365   0.533 -0.1168 -0.1384 -0.1285
  114SOL    HW1  341   1.260   2.383   0.532 -1.2985  0.4492  0.8516
  114SOL    HW2  342   1.383   2.263   0.523  1.0127 -1.2583  4.6841
  115SOL     OW  343   0.069   0.841   2.616 -0.8012  0.4782  0.0408
  115SOL    HW1  344  -0.012   0.799   2.570  0.1737  0.4538 -1.3826
  115SOL    HW2  345   0.078   0.945   2.590 -0.5893  0.5128  0.2541
  116SOL     OW  346   2.941   0.738   2.863  0.7521  0.1186 -0.1272
  116SOL    HW1  347   2.929   0.746   2.764  2.8662  2.0777  0.3178
  116SOL    HW2  348   3.007   0.808   2.890 -0.2085  2.9181 -1.3826
  117SOL     OW  349   2.792   2.977   0.607  0.1596 -0.2180 -0.3378
  117SOL    HW1  350   2.800   3.052   0.673 -1.3253 -0.9627  2.9598
  117SOL    HW2  351   2.738   3.003   0.529 -0.3872  0.0833 -0.5816
  118SOL     OW  352   2.053   2.673   2.293  0.4973  0.0073  0.0484
  118SOL    HW1  353   2.065   2.685   2.192  0.2520 -1.3985  1.1962
  118SOL    HW2  354   1.989   2.595   2.316  2.5925 -1.9626  1.7428
  119SOL     OW  355   0.140   0.828   1.328 -0.4099 -0.4515  0.1524
  119SOL    HW1  356   0.046   0.861   1.336 -0.7945  2.8596 -2.1354
  119SOL    HW2  357   0.164   0.800   1.231 -2.0525 -1.1556 -1.4317
  120SOL     OW  358   0.206   0.736   1.074 -0.0197 -0.1746 -0.3853
  120SOL    HW1  359   0.190   0.634   1.084  1.9229 -2.3519 -2.0125
  120SOL    HW2  360   0.303   0.757   1.061 -1.8005 -1.0888  3.1766
  121SOL     OW  361   2.080   1.345   0.307  0.0218  0.0559  0.2070
  121SOL    HW1  362   2.036   1.365   0.398 -1.1298  1.6491  0.7196
  121SOL    HW2  363   2.174   1.393   0.310  2.9948  0.6890  0.1494
  122SOL     OW  364   2.245   2.352   3.054  0.8691  0.6641  0.1160
  122SOL    HW1  365   2.307   2.399   3.123  1.8925 -1.3556  0.1395
  122SOL    HW2  366   2.210   2.429   2.994  0.3747 -2.0763  0.4342
  123SOL     OW  367   2.688   0.481   0.343  0.3207 -0.4226  0.5561
  123SOL    HW1  368   2.735   0.532   0.421  0.4858 -2.4297  0.2071
  123SOL    HW2  369   2.609   0.534   0.317 -1.9457 -0.1241  0.2850
  124SOL     OW  370   2.738   2.045   0.910  0.2211  0.2813  0.9580
  124SOL    HW1  371   2.758   2.022   0.810  2.1334  1.2112  0.4786
  124SOL    HW2  372   2.643   2.078   0.920 -1.0400  0.1936 -0.1856
  125SOL     OW  373   2.995   2.904   2.633  0.2032 -0.3023  0.1627
  125SOL    HW1  374   3.061   2.977   2.608  0.8028 -0.9219  0.3185
  125SOL    HW2  375   2.943   2.942   2.713 -0.1003  0.0903 -2.0938
  126SOL     OW  376   2.268   0.149   2.821  0.1334 -0.1045  0.1553
  126SOL    HW1  377   2.238   0.206   2.896  1.8082 -1.2108 -1.7383
  126SOL    HW2  378   2.363   0.120   2.841  0.9151  0.4362 -0.0915
  127SOL     OW  379   2.492   1.136   0.587  0.2959  0.4704 -0.0276
  127SOL    HW1  380   2.501   1.138   0.487  2.8301  3.0849 -0.6214
  127SOL    HW2  381   2.519   1.226   0.625 -0.0826 -0.6507 -0.3305
  128SOL     OW  382   2.941   0.191   2.013 -0.3541  0.2572  0.6394
  128SOL    HW1  383   3.003   0.113   2.014 -2.0153 -0.3219  1.4833
  128SOL    HW2  384   2.913   0.213   1.917  0.4437 -1.9086  0.3740
  129SOL     OW  385   2.647   1.341   1.186  0.3364  0.1167  1.0594
  129SOL    HW1  386   2.700   1.255   1.210  0.3292 -1.0534  4.0032
  129SOL    HW2  387   2.691   1.425   1.232 -0.0664  1.1721 -1.4149
  130SOL     OW  388   1.563   1.116   2.920  0.3694  0.4088 -0.0712
  130SOL    HW1  389   1.487   1.057   2.954  1.0376  0.4742  1.3372
  130SOL    HW2  390   1.524   1.201   2.885  3.4199  0.1510 -0.3530
  131SOL     OW  391   2.369   1.250   2.123 -0.0339  0.3919 -0.3149
  131SOL    HW1  392   2.355   1.313   2.198 -0.5020  2.0590 -1.3200
  131SOL    HW2  393   2.394   1.304   2.038 -0.5346 -2.0826  2.7060
  132SOL     OW  394   1.174   1.013   2.247  0.0072  0.2103 -0.5784
  132SOL    HW1  395   1.221   1.076   2.189 -2.9188  0.3660 -0.3436
  132SOL    HW2  396   1.091   1.064   2.283 -0.0051  0.7077 -0.9678
  133SOL     OW  397   0.334   0.255   0.673 -0.6633 -0.5376 -0.1123
  133SOL    HW1  398   0.401   0.222   0.740 -0.0906  1.8394 -1.2856
  133SOL    HW2  399   0.261   0.314   0.717 -0.7541  0.7737 -1.0620
  134SOL     OW  400   0.918   0.851   2.203 -0.2845 -0.2835  0.9785
  134SOL    HW1  401   0.941   0.808   2.291 -1.4055  0.5102 -0.5198
  134SOL    HW2  402   0.902   0.950   2.208 -1.1450  3.0186 -1.0014
  135SOL     OW  403   0.805   1.467   0.856 -0.0249 -0.3626 -0.4288
  135SOL    HW1  404   0.899   1.440   0.866 -1.3404 -1.4054  0.0098
  135SOL    HW2  405   0.770   1.487   0.952  1.3300 -0.3340  0.9984
  136SOL     OW  406   1.763   2.987   1.193 -0.1950  0.2379  0.3984
  136SOL    HW1  407   1.757   2.885   1.175 -1.9381 -1.0233  2.2083
  136SOL    HW2  408   1.705   3.034   1.124 -0.7042  1.8965  0.8992
  137SOL     OW  409   2.176   2.891   0.615 -0.1361  0.4034 -0.4680
  137SOL    HW1  410   2.157   2.847   0.521 -0.3777 -0.5314 -0.1722
  137SOL    HW2  411   2.260   2.849   0.656 -0.1455 -0.8958 -4.0727
  138SOL     OW  412   1.638   0.678   1.824  0.7740 -0.2284 -0.2967
  138SOL    HW1  413   1.693   0.734   1.887 -3.7081  0.7361  0.9037
  138SOL    HW2  414   1.615   0.584   1.858  0.2253 -1.3849 -0.1056
  139SOL     OW  415   1.067   2.759   0.136 -0.0260 -0.2427 -0.1386
  139SOL    HW1  416   1.097   2.671   0.097 -2.1513  0.4036  0.0325
  139SOL    HW2  417   1.001   2.746   0.212  0.7409 -0.1409  0.3052
  140SOL     OW  418   1.904   1.778   3.006  0.1758  0.5157 -0.3017
  140SOL    HW1  419   1.957   1.696   3.048 -3.4417 -0.2704  0.7446
  140SOL    HW2  420   1.813   1.752   2.969 -0.6437 -0.3303 -1.6897
  141SOL     OW  421   1.080   1.859   2.899 -0.2310  0.1641 -0.2563
  141SOL    HW1  422   1.080   1.773   2.947 -0.4580 -0.9064 -0.5676
  141SOL    HW2  423   1.170   1.900   2.873  2.4925  0.3320 -1.4724
  142SOL     OW  424   1.489   2.763   1.522  0.0166  0.0924 -0.3374
  142SOL    HW1  425   1.588   2.732   1.528 -0.6064  0.4912 -0.5629
  142SOL    HW2  426   1.483   2.865   1.527 -1.7466  1.5616  1.6129
  143SOL     OW  427   1.575   2.425   0.389  0.5363 -0.1970 -0.0353
  143SOL    HW1  428   1.601   2.522   0.414 -0.8441  1.6151 -0.9996
  143SOL    HW2  429   1.489   2.406   0.440  1.4716  1.8876 -0.1775
  144SOL     OW  430   0.138   2.616   0.734 -0.1437  0.1492  0.1445
  144SOL    HW1  431   0.189   2.673   0.667 -1.2484  0.1853 -0.3038
  144SOL    HW2  432   0.201   2.587   0.807 -1.3229 -2.9071 -0.9550
  145SOL     OW  433   1.873   2.124   1.015  0.1859  0.1002  0.0773
  145SOL    HW1  434   1.889   2.026   1.044  1.0858 -1.2334 -2.3631
  145SOL    HW2  435   1.957   2.155   0.971 -1.6289 -1.2646 -2.0695
  146SOL     OW  436   2.574   1.706   0.153  0.1504  0.0785 -0.0745
  146SOL    HW1  437   2.570   1.764   0.069  1.0409 -3.9567  0.7411
  146SOL    HW2  438   2.498   1.729   0.218  0.0418  0.7904  1.1533
  147SOL     OW  439   3.018   1.361   2.160 -0.2092 -0.5358 -0.0558
  147SOL    HW1  440   3.010   1.397   2.065 -2.2672  0.2219  1.8233
  147SOL    HW2  441   3.099   1.401   2.215  1.5337 -1.2282 -2.2227
  148SOL     OW  442   1.030   0.019   0.524  0.1927  0.2331  0.5399
  148SOL    HW1  443   0.955  -0.013   0.466 -2.7737 -0.1404 -0.5169
  148SOL    HW2  444   1.012   0.017   0.624 -1.6744  1.8225  0.9151
  149SOL     OW  445   0.834   1.971   1.819  0.6630  0.2553 -0.3325
  149SOL    HW1  446   0.849   1.910   1.901  0.0918  1.6479 -0.1724
  149SOL    HW2  447   0.850   1.914   1.739 -1.8661  0.2884  0.3718
  150SOL     OW  448   0.359   2.931   2.045  0.0780 -0.0585  0.2242
  150SOL    HW1  449   0.395   3.030   2.043  0.4347 -1.0616  1.0738
  150SOL    HW2  450   0.392   2.864   2.114 -0.1705  3.4774 -0.3478
  151SOL     OW  451   0.476   0.927   0.682  0.6304 -0.5152 -0.2805
  151SOL    HW1  452   0.424   0.876   0.609  1.9572 -0.7565  2.5845
  151SOL    HW2  453   0.426   1.012   0.710 -0.1270 -0.7232  3.5936
  152SOL     OW  454   0.010   1.739   0.653  0.1020  0.4700  0.0041
  152SOL    HW1  455   0.006   1.835   0.645 -1.8810 -2.2291 -1.3442
  152SOL    HW2  456   0.103   1.700   0.651  0.0375 -1.3556 -1.6612
  153SOL     OW  457   0.982   2.771   2.959 -0.0147  0.0349  0.0346
  153SOL    HW1  458   1.029   2.697   2.908  2.7610  1.3930 -1.0424
  153SOL    HW2  459   1.004   2.765   3.061  1.2597  0.2305 -0.5588
  154SOL     OW  460   0.068   2.804   1.451 -0.6875 -0.2677 -0.3467
  154SOL    HW1  461   0.025   2.868   1.383  0.6509  0.1834 -0.1905
  154SOL    HW2  462   0.127   2.858   1.506  1.9875  2.8633  0.4549
  155SOL     OW  463   2.686   1.719   0.912 -0.3559  0.2718  0.3147
  155SOL    HW1  464   2.699   1.722   0.813 -0.2415 -0.2881  1.7366
  155SOL    HW2  465   2.737   1.642   0.956  2.7815  1.3526  0.1086
  156SOL     OW  466   2.899   1.618   0.524  0.0650 -0.5942 -0.3336
  156SOL    HW1  467   2.987   1.662   0.554 -3.3272 -1.0437  0.1370
  156SOL    HW2  468   2.874   1.650   0.426  3.7166 -0.8529  0.8224
  157SOL     OW  469   0.558   0.934   2.132  0.5190  0.5443  0.1118
  157SOL    HW1  470   0.512   0.909   2.219  0.1455 -0.8879  0.8505
  157SOL    HW2  471   0.558   0.855   2.063  1.1890  1.9134  0.7389
  158SOL     OW  472   0.874   0.374   2.227 -0.2310  0.3083  0.0961
  158SOL    HW1  473   0.863   0.478   2.215 -0.1260 -0.7467  1.7428
  158SOL    HW2  474   0.884   0.336   2.133  1.7457  1.8619  0.2946
  159SOL     OW  475   1.766   1.129   0.148 -0.2432  0.0766  0.1133
  159SOL    HW1  476   1.781   1.095   0.050  0.2601  1.4163 -1.9486
  159SOL    HW2  477   1.766   1.049   0.216  1.6525  1.0928 -3.5446
  160SOL     OW  478   1.462   1.368   0.416  0.4009 -0.2109 -0.1689
  160SOL    HW1  479   1.531   1.431   0.446 -1.3137 -1.0570  1.3950
  160SOL    HW2  480   1.493   1.326   0.329 -1.2865  0.7623  0.0628
  161SOL     OW  481   2.909   2.680   0.066 -0.0183  0.6854  0.8492
  161SOL    HW1  482   2.869   2.647  -0.024 -2.3024 -0.7937  0.0718
  161SOL    HW2  483   2.870   2.618   0.142  3.4432  4.9221  1.1099
  162SOL     OW  484   0.140   2.076   1.314 -0.2134 -0.2353 -0.0927
  162SOL    HW1  485   0.186   2.073   1.225  1.2137  2.1782 -2.0730
  162SOL    HW2  486   0.165   2.164   1.360 -0.2083  0.8683 -1.2352
  163SOL     OW  487   0.518   1.302   0.967  0.3873 -0.8400  0.2879
  163SOL    HW1  488   0.550   1.382   1.025 -0.8397 -1.6560 -0.9191
  163SOL    HW2  489   0.592   1.240   0.937 -1.7308 -1.0668  1.4788
  164SOL     OW  490   1.487   2.557   2.857  0.2066  0.2045  0.0126
  164SOL    HW1  491   1.578   2.606   2.848  1.1144 -0.9496  0.1324
  164SOL    HW2  492   1.502   2.454   2.850 -1.9761  1.3866  2.0781
  165SOL     OW  493   2.738   2.058   1.584 -0.3491  0.0344  0.0943
  165SOL    HW1  494   2.731   2.087   1.680 -2.0868 -1.1392  4.2451
  165SOL    HW2  495   2.658   2.080   1.528 -2.1116  0.0935 -0.5200
  166SOL     OW  496   1.998   2.886   0.821 -0.2073  0.0681 -0.6510
  166SOL    HW1  497   1.968   2.979   0.834 -1.3390 -1.6224 -0.7730
  166SOL    HW2  498   2.065   2.878   0.740 -0.8308 -1.3174  3.7776
  167SOL     OW  499   0.240   1.176   2.352 -0.0478 -0.3287  0.1502
  167SOL    HW1  500   0.334   1.182   2.399 -2.9866  0.5373 -0.0840
  167SOL    HW2  501   0.241   1.196   2.255  0.7893  1.1562 -2.7585
  168SOL     OW  502   1.415   0.828   2.908 -0.5122  0.2558 -0.3584
  168SOL    HW1  503   1.372   0.895   2.841 -2.6266 -1.9116 -2.7055
  168SOL    HW2  504   1.511   0.811   2.879  0.9133 -0.3083  1.7117
  169SOL     OW  505   0.632   0.232   1.129 -0.8052 -0.5177 -0.8254
  169SOL    HW1  506   0.727   0.189   1.132  1.4399  0.4747 -0.2418
  169SOL    HW2  507   0.617   0.249   1.028 -1.6354  0.1185  2.9075
  170SOL     OW  508   1.924   0.213   1.735  0.4574 -0.6251  0.4664
  170SOL    HW1  509   2.019   0.210   1.698  2.3500 -0.2172  1.0379
  170SOL    HW2  510   1.925   0.253   1.827 -1.9533  0.7184  0.6450
  171SOL     OW  511   1.534   2.901   0.560  0.9530 -0.2386 -0.1640
  171SOL    HW1  512   1.582   2.966   0.499 -0.1306 -1.3150  2.3612
  171SOL    HW2  513   1.434   2.911   0.535  2.3815  0.0811  1.6288
  172SOL     OW  514   1.369   0.735   1.889  0.2744  0.0862 -0.6783
  172SOL    HW1  515   1.367   0.680   1.973  1.2407 -0.5936 -2.7193
  172SOL    HW2  516   1.458   0.717   1.843 -2.0126  0.5307 -0.3102
  173SOL     OW  517   1.099   2.196   0.100 -0.0961  0.0881 -0.1791
  173SOL    HW1  518   1.073   2.130   0.172  0.0969  2.4373  1.2367
  173SOL    HW2  519   1.202   2.194   0.085  0.4917  3.4156 -0.9014
  174SOL     OW  520   3.048   2.779   0.868  0.0720 -0.0584 -0.3334
  174SOL    HW1  521   3.092   2.692   0.828 -2.0880  0.6452  0.1220
  174SOL    HW2  522   3.085   2.802   0.959 -0.4412 -1.7805  2.5754
  175SOL     OW  523   0.068   1.371   1.157 -0.0689 -0.1197 -0.4828
  175SOL    HW1  524   0.167   1.382   1.153 -0.1100 -1.5274 -2.8291
  175SOL    HW2  525   0.028   1.339   1.067 -0.3747 -1.1376 -2.7776
  176SOL     OW  526   0.936   2.176   1.161  0.1566 -0.2090  0.1617
  176SOL    HW1  527   0.985   2.252   1.117  0.2245  0.7366  0.3902
  176SOL    HW2  528   0.908   2.106   1.091  0.6096  1.3301 -2.4338
  177SOL     OW  529   2.255   2.815   1.146  0.6877 -0.5321  0.5455
  177SOL    HW1  530   2.322   2.841   1.074 -1.4364  1.5961  0.5262
  177SOL    HW2  531   2.192   2.752   1.098 -3.8380  1.8300 -0.3979
  178SOL     OW  532   3.005   0.967   2.073  0.2811  0.3556  0.1005
  178SOL    HW1  533   3.081   1.010   2.026  2.5574 -1.9579  1.1605
  178SOL    HW2  534   2.989   1.000   2.167 -0.7438 -0.0797 -0.3926
  179SOL     OW  535   0.768   2.229   2.120  0.3670  0.3299 -0.2957
  179SOL    HW1  536   0.857   2.282   2.113 -0.6917 -2.3301  1.8964
  179SOL    HW2  537   0.699   2.293   2.161  1.9107 -1.0170 -1.8799
  180SOL     OW  538   2.282   1.112   1.221 -0.4160 -0.6669  0.1099
  180SOL    HW1  539   2.311   1.073   1.131  0.2035  0.2714  0.5017
  180SOL    HW2  540   2.256   1.046   1.285 -0.3720 -1.0756  0.1013
  181SOL     OW  541   0.781   2.944   1.234 -0.3802  0.2718  0.2782
  181SOL    HW1  542   0.815   2.871   1.173  1.7479  2.3084  1.0040
  181SOL    HW2  543   0.777   2.913   1.332 -0.8771  0.6723  1.5014
  182SOL     OW  544   2.969   0.155   0.125  0.3251  0.1052 -0.0337
  182SOL    HW1  545   2.958   0.086   0.053  0.5088 -1.3821  4.4290
  182SOL    HW2  546   2.895   0.224   0.120  0.5703  1.6421 -1.4668
  183SOL     OW  547   2.193   2.525   1.776 -0.0330 -0.6084 -0.5031
  183SOL    HW1  548   2.245   2.442   1.802 -1.3608  1.0904 -1.1561
  183SOL    HW2  549   2.229   2.563   1.690  2.2108 -0.1329 -2.0005
  184SOL     OW  550   2.812   0.588   0.563 -0.0196  0.1017 -0.4072
  184SOL    HW1  551   2.881   0.661   0.532  1.7260  0.0479 -2.0758
  184SOL    HW2  552   2.743   0.630   0.623  0.4180  0.5984  0.7941
  185SOL     OW  553   2.818   0.240   0.407 -0.2010  0.3277  0.2911
  185SOL    HW1  554   2.790   0.335   0.386  0.4030  0.9141  1.0072
  185SOL    HW2  555   2.921   0.233   0.394  2.8700 -1.2929  0.0567
  186SOL     OW  556   2.418   2.085   0.307  0.0237 -0.3607  0.4479
  186SOL    HW1  557   2.443   2.161   0.373  0.0797 -1.1760 -1.3418
  186SOL    HW2  558   2.483   2.074   0.231 -2.6257 -1.6506  2.5673
  187SOL     OW  559   1.710   2.131   2.790  0.4667  0.4712  0.2723
  187SOL    HW1  560   1.678   2.050   2.736 -1.2665 -3.3556 -0.7801
  187SOL    HW2  561   1.790   2.170   2.740  0.7682  0.1209 -0.3620
  188SOL     OW  562   0.440   0.379   1.616 -0.4930 -0.0691  0.2402
  188SOL    HW1  563   0.351   0.428   1.594 -0.0543 -0.5768  1.1564
  188SOL    HW2  564   0.525   0.426   1.587 -2.1023  0.1712 -3.0956
  189SOL     OW  565   2.908   1.508   2.461 -0.5579 -0.6336  1.1046
  189SOL    HW1  566   2.979   1.580   2.444 -0.7535 -1.2499  0.1271
  189SOL    HW2  567   2.835   1.511   2.388 -0.5377 -2.5044 -3.1310
  190SOL     OW  568   0.397   2.229   2.200  0.0654 -0.9535 -0.2828
  190SOL    HW1  569   0.406   2.155   2.133 -0.0763  0.1848  3.2909
  190SOL    HW2  570   0.481   2.287   2.204 -0.0836  0.0908 -1.3248
  191SOL     OW  571   2.572   1.409   1.540  0.0335 -0.3531  0.1792
  191SOL    HW1  572   2.663   1.373   1.515  0.1828  1.2362 -1.1296
  191SOL    HW2  573   2.494   1.343   1.514  0.9676  0.6562  0.9441
  192SOL     OW  574   1.686   0.648   0.638  0.4274 -0.3058  0.2459
  192SOL    HW1  575   1.657   0.576   0.568  1.0793  0.1795  4.0983
  192SOL    HW2  576   1.624   0.634   0.721 -1.2778  0.9181  0.7889
  193SOL     OW  577   1.643   1.579   0.517 -0.6103 -0.0588  0.4117
  193SOL    HW1  578   1.706   1.552   0.599 -2.5977 -1.1064 -1.1529
  193SOL    HW2  579   1.700   1.577   0.437 -1.3535 -1.0658  0.3822
  194SOL     OW  580   2.491   2.097   1.473 -0.4097 -0.7861  0.5598
  194SOL    HW1  581   2.409   2.157   1.493 -0.7216  0.5767 -1.1765
  194SOL    HW2  582   2.481   2.009   1.525 -1.2471 -1.8548  0.0551
  195SOL     OW  583   2.089   1.196   1.042  0.1180  0.3240 -0.7062
  195SOL    HW1  584   2.068   1.295   1.054 -0.2915  3.0849 -1.7508
  195SOL    HW2  585   2.168   1.165   1.100  0.9061 -1.5321  0.4109
  196SOL     OW  586   0.858   2.020   0.964 -0.3468  0.4215  0.0803
  196SOL    HW1  587   0.909   1.941   0.999  0.2082  2.0324  0.2003
  196SOL    HW2  588   0.875   2.021   0.864 -0.7951  1.3346 -0.6152
  197SOL     OW  589   2.908   2.621   2.008  0.8842  0.5982  0.3936
  197SOL    HW1  590   2.878   2.715   1.979  0.7385 -0.7778  3.3035
  197SOL    HW2  591   2.842   2.545   1.983  0.7390  1.1925  2.0499
  198SOL     OW  592   1.462   0.933   0.092 -0.4871  0.6140 -0.2628
  198SOL    HW1  593   1.393   0.897   0.020 -1.2536  0.4336 -2.7697
  198SOL    HW2  594   1.525   0.857   0.114 -2.0597 -0.9546  0.3591
  199SOL     OW  595   2.608   2.801   1.712 -0.0380 -0.0671 -0.3977
  199SOL    HW1  596   2.548   2.861   1.650  0.5411 -2.3924  0.1908
  199SOL    HW2  597   2.610   2.846   1.804  2.6916 -1.3542 -0.3020
  200SOL     OW  598   1.812   2.402   0.057  0.4238 -0.5122 -0.1722
  200SOL    HW1  599   1.835   2.500   0.078 -1.3127 -1.0968  1.8275
  200SOL    HW2  600   1.897   2.344   0.056  2.0506 -0.2125 -4.0595
  201SOL     OW  601   2.673   0.487   2.420  0.3015  0.0834 -0.1159
  201SOL    HW1  602   2.676   0.572   2.359  0.1762  0.7071  1.2993
  201SOL    HW2  603   2.723   0.413   2.374 -2.0202 -2.3066  1.4647
  202SOL     OW  604   1.841   0.235   3.001  0.2548  0.1022 -0.2765
  202SOL    HW1  605   1.822   0.220   2.902 -0.3250 -1.3416 -1.2107
  202SOL    HW2  606   1.876   0.332   3.017  0.4599 -1.6632 -3.7909
  203SOL     OW  607   1.500   1.918   0.267 -0.4789 -0.5249  0.3950
  203SOL    HW1  608   1.443   1.910   0.181 -0.5122  2.5846 -1.9037
  203SOL    HW2  609   1.587   1.974   0.252 -0.8853 -1.1607 -2.5844
  204SOL     OW  610   2.751   1.280   2.137 -0.1680  0.0761 -0.4678
  204SOL    HW1  611   2.727   1.198   2.196 -1.8101  1.7674  2.4153
  204SOL    HW2  612   2.847   1.312   2.150 -0.5932  0.9882  0.6471
  205SOL     OW  613   2.674   0.281   0.622 -0.5696  0.3659  0.3607
  205SOL    HW1  614   2.732   0.259   0.544 -0.9353  2.7519  1.7677
  205SOL    HW2  615   2.575   0.286   0.590  0.3141  0.6224  0.1618
  206SOL     OW  616   3.078   0.291   0.416  0.0184  0.0323  0.5858
  206SOL    HW1  617   3.119   0.356   0.345 -1.3428  2.1213 -1.4339
  206SOL    HW2  618   3.119   0.200   0.395  1.6572 -0.2062  0.6780
  207SOL     OW  619   1.507   1.914   2.026  0.4587 -0.2540  0.0186
  207SOL    HW1  620   1.505   1.875   1.929  2.2010  0.3285 -1.8353
  207SOL    HW2  621   1.414   1.954   2.045 -0.1651 -0.4208  0.4640
  208SOL     OW  622   2.962   2.932   1.753  0.5434 -0.2456  0.0899
  208SOL    HW1  623   2.924   2.845   1.713 -0.0354  0.4261  1.2165
  208SOL    HW2  624   3.036   2.966   1.692 -2.4094  2.1530  1.3030
  209SOL     OW  625   2.557   1.233   0.944 -0.4408  0.2550 -0.6970
  209SOL    HW1  626   2.522   1.291   0.866  3.5481  2.0247 -1.3366
  209SOL    HW2  627   2.591   1.283   1.025  0.6538 -0.7587  3.4081
  210SOL     OW  628   0.350   1.896   0.692 -0.3660  0.0899  0.3878
  210SOL    HW1  629   0.315   1.993   0.699  0.2402 -0.9314 -2.2491
  210SOL    HW2  630   0.319   1.836   0.767  1.4622 -1.9066  0.2629
  211SOL     OW  631   1.055   2.567   1.913  0.5086  0.5495  0.6166
  211SOL    HW1  632   0.994   2.579   1.826  2.2573  1.5095 -2.5045
  211SOL    HW2  633   1.040   2.641   1.982 -1.3642 -2.0400  2.4153
  212SOL     OW  634   1.817   1.539   0.717  1.0955 -0.4751 -0.0558
  212SOL    HW1  635   1.801   1.481   0.798  1.3513 -0.8411  1.6461
  212SOL    HW2  636   1.854   1.626   0.751 -0.3497  1.0959  2.5736
  213SOL     OW  637   0.326   0.743   0.479  0.3656 -0.2271 -0.5806
  213SOL    HW1  638   0.236   0.703   0.519 -0.9258 -2.2850 -1.5287
  213SOL    HW2  639   0.367   0.690   0.401  0.2672  0.1710 -1.1456
  214SOL     OW  640   1.748   1.390   1.344  0.2221 -0.0788 -0.0522
  214SOL    HW1  641   1.650   1.411   1.365 -1.4180 -1.4271 -0.5873
  214SOL    HW2  642   1.803   1.474   1.323 -0.6461 -2.9559  1.9289
  215SOL     OW  643   1.255   1.813   0.693  0.2293  0.2466 -0.3991
  215SOL    HW1  644   1.318   1.758   0.629 -0.0746  0.3026 -3.3374
  215SOL    HW2  645   1.197   1.878   0.640  2.6348 -0.4801  1.8968
  216SOL     OW  646   0.468   0.807   2.372 -0.1606  0.6275  0.2487
  216SOL    HW1  647   0.511   0.715   2.357 -3.7306 -0.3678  0.7935
  216SOL    HW2  648   0.404   0.806   2.453  0.2613  0.3575 -1.9153
  217SOL     OW  649   2.916   0.718   1.702  0.5379 -0.0905  0.0928
  217SOL    HW1  650   2.901   0.807   1.749  0.7523 -0.0191  0.4966
  217SOL    HW2  651   2.889   0.642   1.766 -3.2091  0.1685 -0.2860
  218SOL     OW  652   2.929   2.683   2.504  0.5593 -0.4384  0.2973
  218SOL    HW1  653   2.957   2.774   2.538 -2.6088  1.8985 -0.9200
  218SOL    HW2  654   2.962   2.664   2.408  0.7472 -1.0368 -0.6609
  219SOL     OW  655   2.136   2.557   0.468 -0.0401  0.0740 -0.0378
  219SOL    HW1  656   2.134   2.649   0.425 -0.6885 -2.8850  0.0182
  219SOL    HW2  657   2.076   2.491   0.419  0.2405  0.9167  0.8986
  220SOL     OW  658   3.093   2.561   2.674  0.0108  0.0077  0.2484
  220SOL    HW1  659   3.171   2.536   2.612 -1.7028 -1.2390  1.0866
  220SOL    HW2  660   3.023   2.616   2.625 -1.0109 -0.7473 -2.0915
  221SOL     OW  661   0.104   1.305   2.762 -0.7120  0.0797 -0.4556
  221SOL    HW1  662   0.176   1.386   2.763 -0.4321  1.7028  3.1730
  221SOL    HW2  663   0.040   1.308   2.844  1.3017  0.7114  0.8850
  222SOL     OW  664   2.166   2.001   0.654  0.1453  0.4320 -0.2050
  222SOL    HW1  665   2.253   1.954   0.679  1.2411  0.7691 -0.2850
  222SOL    HW2  666   2.174   2.034   0.555 -1.0986 -2.5338  1.8694
  223SOL     OW  667   1.464   0.169   0.274 -0.9513  0.2069  0.2883
  223SOL    HW1  668   1.387   0.173   0.344  2.9544  0.0356  0.5292
  223SOL    HW2  669   1.536   0.107   0.305  1.6404 -3.3767 -0.0995
  224SOL     OW  670   0.908   2.820   1.016 -0.0979 -0.3980  0.3246
  224SOL    HW1  671   1.011   2.832   1.010  0.2906  1.9000  0.5737
  224SOL    HW2  672   0.865   2.813   0.923 -1.0421  0.8615  0.0803
  225SOL     OW  673   3.060   0.504   1.263 -0.2454 -0.2031 -0.0825
  225SOL    HW1  674   3.001   0.424   1.272 -0.2517  1.0103 -1.1749
  225SOL    HW2  675   3.031   0.584   1.321 -2.9058  0.8052  1.8205
  226SOL     OW  676   1.228   2.472   1.592 -0.5286  0.2087  0.1875
  226SOL    HW1  677   1.320   2.441   1.557 -0.7336 -4.0659  0.0325
  226SOL    HW2  678   1.233   2.565   1.639 -0.9465  2.1332 -1.4489
  227SOL     OW  679   0.768   1.835   0.624 -0.1867 -0.2694  0.5532
  227SOL    HW1  680   0.830   1.782   0.567  0.3975 -1.0573 -0.7746
  227SOL    HW2  681   0.718   1.775   0.693 -0.9333  0.5829  2.7885
  228SOL     OW  682   2.952   1.043   2.927 -0.5648  0.5128 -0.3622
  228SOL    HW1  683   2.926   1.032   2.826 -0.2446 -1.1123 -0.7637
  228SOL    HW2  684   2.986   1.135   2.950 -2.5617  2.1266  0.1601
  229SOL     OW  685   2.668   0.120   1.185 -1.1551 -0.9971 -0.4263
  229SOL    HW1  686   2.732   0.093   1.109 -0.8190  1.2349 -0.5410
  229SOL    HW2  687   2.595   0.181   1.151 -0.0347 -2.1784  0.0761
  230SOL     OW  688   2.424   1.402   1.891  0.5081 -1.1459 -0.2062
  230SOL    HW1  689   2.471   1.491   1.880 -1.3552  0.9002 -2.8148
  230SOL    HW2  690   2.458   1.332   1.821 -0.3879 -0.1192 -2.0163
  231SOL     OW  691   2.433   1.888   1.669 -0.0595  0.3824 -0.0706
  231SOL    HW1  692   2.481   1.801   1.695  1.2779 -1.1111  0.7676
  231SOL    HW2  693   2.342   1.869   1.625  0.6650 -0.9653  2.1499
  232SOL     OW  694   2.411   1.673   1.279 -0.0002 -0.0086  0.3339
  232SOL    HW1  695   2.344   1.706   1.349 -0.0165 -0.3088  0.7153
  232SOL    HW2  696   2.406   1.573   1.263 -0.1566  1.1290 -0.3894
  233SOL     OW  697   0.329   2.948   1.119  0.0474  0.0838 -0.1884
  233SOL    HW1  698   0.368   2.878   1.051 -0.4244 -3.4208 -0.5883
  233SOL    HW2  699   0.356   2.926   1.214 -1.0292  1.4435  0.7788
  234SOL     OW  700   1.132   0.261   0.772 -0.3041  0.2746  0.9476
  234SOL    HW1  701   1.212   0.213   0.733  1.7141 -0.5242 -0.2418
  234SOL    HW2  702   1.058   0.282   0.702  0.7366  2.6257 -0.3151
  235SOL     OW  703   2.682   1.623   2.620  0.1475  0.1254 -0.1400
  235SOL    HW1  704   2.767   1.588   2.583 -0.4259 -1.7152 -2.2033
  235SOL    HW2  705   2.674   1.730   2.631 -1.6391 -0.7448 -1.0336
  236SOL     OW  706   1.505   2.732   1.928 -0.1561 -0.3062 -0.3822
  236SOL    HW1  707   1.556   2.725   2.018 -0.7913  1.4395  0.1579
  236SOL    HW2  708   1.559   2.789   1.864 -1.2425  0.1279  0.9925
  237SOL     OW  709   0.007   2.159   2.678  0.2463  0.0931 -0.1211
  237SOL    HW1  710   0.014   2.243   2.735  0.5062 -2.8052 -0.1739
  237SOL    HW2  711   0.009   2.075   2.733  0.7731  0.6752  1.0610
  238SOL     OW  712   1.386   1.186   2.388 -0.1394 -0.2127 -0.9060
  238SOL    HW1  713   1.446   1.108   2.418 -0.2412  0.7994 -1.6816
  238SOL    HW2  714   1.374   1.185   2.286  1.2131  0.0363 -3.9458
  239SOL     OW  715   1.008   2.180   1.826  0.3752  0.1477  0.0429
  239SOL    HW1  716   0.947   2.101   1.832 -0.1316  0.7599  0.1120
  239SOL    HW2  717   0.991   2.238   1.738  0.2668  0.2854 -0.0222
  240SOL     OW  718   2.832   2.304   0.936 -0.1483  0.3659  0.4211
  240SOL    HW1  719   2.846   2.324   0.837  0.7434  2.8059 -2.8673
  240SOL    HW2  720   2.801   2.209   0.954 -3.1130 -0.7600  1.5014
  241SOL     OW  721   2.198   0.993   2.878 -0.7453  0.1174 -0.1598
  241SOL    HW1  722   2.115   0.932   2.869 -1.5843 -0.0339 -0.6217
  241SOL    HW2  723   2.281   0.935   2.868 -0.6917  0.4208  0.8371
  242SOL     OW  724   0.821   2.920   1.519 -0.3011  0.1789 -0.0830
  242SOL    HW1  725   0.899   2.923   1.584 -0.3979 -1.1379  0.4926
  242SOL    HW2  726   0.741   2.970   1.556  0.0220  0.9997 -2.3088
  243SOL     OW  727   0.457   2.158   1.277 -0.1676  0.2705  0.5309
  243SOL    HW1  728   0.500   2.250   1.248  0.4005  1.6751  3.2993
  243SOL    HW2  729   0.477   2.094   1.202  0.5475  2.8474  0.4789
  244SOL     OW  730   1.250   2.877   1.892  0.4260  0.3119  0.1526
  244SOL    HW1  731   1.341   2.847   1.920  1.2328 -0.2057  0.7641
  244SOL    HW2  732   1.185   2.856   1.971  1.0064 -1.5477 -1.8420
  245SOL     OW  733   1.604   2.581   0.909  0.0328  0.4728  0.3396
  245SOL    HW1  734   1.653   2.609   0.824 -0.1734 -0.7475  1.0878
  245SOL    HW2  735   1.529   2.523   0.874  0.0976  0.0639  0.7333
  246SOL     OW  736   1.777   0.387   0.255  0.0505 -0.1111 -0.0096
  246SOL    HW1  737   1.870   0.404   0.220 -0.0918 -4.6004  2.5827
  246SOL    HW2  738   1.718   0.355   0.181  1.4886 -0.2997 -2.1880
  247SOL     OW  739   0.820   0.439   1.960 -0.2806 -0.3435  0.5692
  247SOL    HW1  740   0.774   0.512   2.013 -1.9631 -3.4544  1.0726
  247SOL    HW2  741   0.918   0.459   1.943  0.3822 -2.6754  1.0075
  248SOL     OW  742   0.202   0.103   1.399  0.5873 -0.5783 -0.2420
  248SOL    HW1  743   0.244   0.149   1.315 -1.2210 -3.6040  0.5395
  248SOL    HW2  744   0.259   0.117   1.481  0.5288  4.5646 -0.7379
  249SOL     OW  745   0.939   0.268   1.371  0.5452  0.1888 -0.3979
  249SOL    HW1  746   0.914   0.187   1.312 -0.2178  0.5990 -2.5984
  249SOL    HW2  747   1.018   0.319   1.326 -0.4545  0.3142 -2.1698
  250SOL     OW  748   2.257   0.269   2.577 -0.1332 -0.2694 -0.0234
  250SOL    HW1  749   2.261   0.230   2.672 -1.1701 -0.8266 -1.2198
  250SOL    HW2  750   2.334   0.325   2.561 -1.8805  2.3119 -0.9518
  251SOL     OW  751   0.805   0.615   0.262  0.4052  0.0709 -0.4456
  251SOL    HW1  752   0.726   0.584   0.324 -0.4977 -1.5754 -0.7509
  251SOL    HW2  753   0.877   0.651   0.324  1.3697 -2.8953 -0.2318
  252SOL     OW  754   0.915   1.376   2.403  0.3353  0.0881  0.1927
  252SOL    HW1  755   0.834   1.432   2.402 -2.1322  1.8990 -0.5021
  252SOL    HW2  756   0.998   1.437   2.421  0.7788  1.2856  0.4292
  253SOL     OW  757   2.536   1.232   2.906 -0.1514  0.3461  0.3968
  253SOL    HW1  758   2.550   1.336   2.894 -0.3849 -1.7377  1.1653
  253SOL    HW2  759   2.487   1.191   2.825  1.5561 -2.8266 -0.0575
  254SOL     OW  760   1.933   0.601   1.821  0.0022  0.1347 -0.5421
  254SOL    HW1  761   1.936   0.503   1.859  1.8044  0.4563 -1.9057
  254SOL    HW2  762   1.843   0.625   1.778  4.1822  1.7679  1.3752
  255SOL     OW  763   0.252   0.140   1.908  0.4083 -1.0047  0.1232
  255SOL    HW1  764   0.221   0.239   1.907 -0.1992  0.2768  0.3989
  255SOL    HW2  765   0.338   0.119   1.958  2.0242 -1.5395  0.5175
  256SOL     OW  766   1.928   2.648   1.768  0.1687  0.1989  0.0889
  256SOL    HW1  767   2.018   2.605   1.762 -2.7400 -2.2304  3.3229
  256SOL    HW2  768   1.877   2.594   1.839 -1.1091  0.3140 -1.5624
  257SOL     OW  769   0.188   2.957   1.633 -0.3994 -0.2761  0.6210
  257SOL    HW1  770   0.212   2.899   1.716  1.4558  0.5453 -0.0261
  257SOL    HW2  771   0.232   3.049   1.641  1.0598 -1.2824  0.0304
  258SOL     OW  772   1.316   2.353   1.132 -0.2489  0.1317 -0.1261
  258SOL    HW1  773   1.220   2.369   1.096 -1.4875  2.0324 -0.8679
  258SOL    HW2  774   1.348   2.435   1.179 -0.8143 -0.7010  0.3388
  259SOL     OW  775   0.878   0.010   0.289 -0.0115  0.2586 -0.2155
  259SOL    HW1  776   0.933   0.077   0.234  0.6793 -1.4767 -2.4071
  259SOL    HW2  777   0.826  -0.047   0.226  0.5159 -0.2987  2.3693
  260SOL     OW  778   0.554   1.000   1.256  0.0404 -0.1017  0.2408
  260SOL    HW1  779   0.622   1.051   1.314 -1.8249 -1.5013  1.0517
  260SOL    HW2  780   0.557   0.900   1.272 -1.0577 -0.7058  1.3310
  261SOL     OW  781   0.411   0.520   2.668 -0.5425  0.5593 -0.6400
  261SOL    HW1  782   0.478   0.518   2.742  0.1788  0.4553  3.1076
  261SOL    HW2  783   0.389   0.616   2.635  0.0578 -0.6658 -0.3176
  262SOL     OW  784   1.434   3.027   1.563  0.5820 -0.1437  0.7085
  262SOL    HW1  785   1.331   3.038   1.575  3.3378  2.1788  0.9685
  262SOL    HW2  786   1.475   3.102   1.509  0.1767  1.7828 -1.0505
  263SOL     OW  787   1.474   2.289   2.853 -0.2291 -0.3329  0.1561
  263SOL    HW1  788   1.553   2.231   2.833  3.7610  0.7412 -1.2022
  263SOL    HW2  789   1.391   2.255   2.805  2.0281 -0.2485  1.6292
  264SOL     OW  790   1.099   1.291   0.638 -0.8265  0.5597 -0.4987
  264SOL    HW1  791   1.147   1.332   0.719 -1.0376  2.8449 -0.7290
  264SOL    HW2  792   1.134   1.343   0.558  1.3968  0.0717  0.6838
  265SOL     OW  793   0.998   0.575   2.988 -0.2880  0.6881  0.0594
  265SOL    HW1  794   1.094   0.598   2.997  1.4344  0.5525 -0.2171
  265SOL    HW2  795   0.949   0.662   2.958 -1.0676 -0.8425 -1.0387
  266SOL     OW  796   2.437   1.106   1.741 -0.2752  0.4880  0.3825
  266SOL    HW1  797   2.520   1.128   1.794 -3.6281 -0.2672  1.7713
  266SOL    HW2  798   2.455   1.014   1.701 -0.0470  1.6533  0.7777
  267SOL     OW  799   0.696   1.065   0.582 -0.4435 -0.3267  0.4217
  267SOL    HW1  800   0.749   1.019   0.506 -1.9611  1.0573 -3.2726
  267SOL    HW2  801   0.623   1.006   0.617 -1.1431 -2.3243 -0.9257
  268SOL     OW  802   0.645   0.557   0.708  0.2571  0.1286 -0.2048
  268SOL    HW1  803   0.550   0.542   0.747 -1.8579 -0.9697  2.4107
  268SOL    HW2  804   0.652   0.528   0.614 -1.5958 -1.0558  1.0084
  269SOL     OW  805   2.163   0.226   2.133 -0.8156  0.4457 -0.1002
  269SOL    HW1  806   2.189   0.322   2.106 -0.4427  4.3401 -3.5753
  269SOL    HW2  807   2.175   0.165   2.055 -0.4284 -1.4279  0.4569
  270SOL     OW  808   2.374   0.577   3.040  0.1382 -0.0995 -0.4467
  270SOL    HW1  809   2.362   0.572   2.939  1.5764 -1.6857 -0.0961
  270SOL    HW2  810   2.368   0.674   3.069 -1.0490  0.1464  1.1407
  271SOL     OW  811   2.801   1.694   2.105 -0.2118 -0.0382  0.2564
  271SOL    HW1  812   2.773   1.614   2.162  1.0870 -1.7355 -1.6855
  271SOL    HW2  813   2.848   1.765   2.164  1.1487 -3.2032 -1.2191
  272SOL     OW  814   1.758   2.665   1.539  0.3333  0.3093  0.5667
  272SOL    HW1  815   1.803   2.660   1.628  1.4840  1.5417  1.0478
  272SOL    HW2  816   1.828   2.698   1.466  3.3681  3.1127  1.8704
  273SOL     OW  817   1.001   2.007   0.286 -0.5764  0.7249  0.4311
  273SOL    HW1  818   0.909   1.988   0.258  1.5625  0.7184 -0.4848
  273SOL    HW2  819   1.066   1.943   0.237 -0.0124 -0.6352 -2.1642
  274SOL     OW  820   0.780   0.783   1.751 -0.1519 -0.0669 -0.0391
  274SOL    HW1  821   0.750   0.872   1.711  1.5016 -0.7435 -0.0641
  274SOL    HW2  822   0.810   0.720   1.679 -1.3175 -1.6343  0.1655
  275SOL     OW  823   1.577   2.202   2.387  0.3307 -0.1230 -0.1903
  275SOL    HW1  824   1.536   2.204   2.295  1.3286 -0.5667 -0.7315
  275SOL    HW2  825   1.530   2.274   2.443  0.0758 -0.0145 -1.6876
  276SOL     OW  826   2.921   0.686   1.431 -0.4657 -0.0411 -0.4000
  276SOL    HW1  827   2.924   0.671   1.531  0.2968 -0.5814  3.0125
  276SOL    HW2  828   2.935   0.781   1.409  1.0100  0.5266 -2.6735
  277SOL     OW  829   1.649   0.266   0.699 -0.2824 -0.8836 -0.0524
  277SOL    HW1  830   1.704   0.278   0.782  2.2069  1.1225  0.8319
  277SOL    HW2  831   1.707   0.227   0.621 -0.1272  2.5150  1.0759
  278SOL     OW  832   0.994   0.478   0.149  0.2027 -0.2423  0.0566
  278SOL    HW1  833   0.924   0.533   0.196 -1.5134 -2.5216  2.1456
  278SOL    HW2  834   1.005   0.519   0.059 -2.9359 -1.6289  2.1294
  279SOL     OW  835   1.902   2.285   1.227 -0.0967  0.1333  0.1874
  279SOL    HW1  836   1.877   2.229   1.147  1.4795 -0.1628 -2.0384
  279SOL    HW2  837   2.002   2.309   1.216  0.7687 -1.7587 -0.9810
  280SOL     OW  838   1.647   0.782   1.037 -0.5771  0.1565  0.1736
  280SOL    HW1  839   1.743   0.773   1.003  0.1418  1.2576 -0.1578
  280SOL    HW2  840   1.646   0.810   1.136 -0.3499  0.7501  1.4588
  281SOL     OW  841   1.240   2.193   2.754  0.1230 -0.3756 -0.1190
  281SOL    HW1  842   1.238   2.222   2.659  1.5958  0.9368 -0.6272
  281SOL    HW2  843   1.254   2.095   2.762  0.0176  0.9643 -0.4590
  282SOL     OW  844   2.533   0.954   1.408 -0.1121  0.1400  0.1561
  282SOL    HW1  845   2.536   0.883   1.336 -0.5754  0.2053  2.6906
  282SOL    HW2  846   2.541   0.910   1.500  0.7909  0.4558  0.2821
  283SOL     OW  847   1.924   2.040   2.162  0.4405 -0.4018 -0.2708
  283SOL    HW1  848   2.019   2.035   2.130 -0.7894 -0.9061 -1.7912
  283SOL    HW2  849   1.860   2.009   2.089  2.0011 -0.2571  0.6264
  284SOL     OW  850   1.026   0.236   2.539  0.0872  0.3837  0.1970
  284SOL    HW1  851   0.929   0.230   2.505  0.2459 -1.0540  0.2867
  284SOL    HW2  852   1.092   0.283   2.475  0.6727 -2.8460  2.2045
  285SOL     OW  853   1.739   1.471   2.995  0.0026 -0.3932 -0.2949
  285SOL    HW1  854   1.816   1.421   3.043 -3.9503 -1.5128  0.6516
  285SOL    HW2  855   1.747   1.451   2.893  0.6724  0.7469  0.0115
  286SOL     OW  856   0.866   0.023   2.102 -0.7117  0.0209  0.2230
  286SOL    HW1  857   0.803   0.085   2.050 -1.7501  1.2379  1.1282
  286SOL    HW2  858   0.824  -0.007   2.188 -0.1379 -0.5173  0.2823
  287SOL     OW  859   1.226   3.041   1.286  0.0605 -0.0846  0.2137
  287SOL    HW1  860   1.245   2.950   1.241  0.6235 -2.0557  2.1787
  287SOL    HW2  861   1.186   3.102   1.207 -1.1137 -0.1443  1.2289
  288SOL     OW  862   0.764   0.048   2.879  0.1273 -0.1229 -0.2078
  288SOL    HW1  863   0.845  -0.013   2.851  1.3864  2.1036  1.1586
  288SOL    HW2  864   0.798   0.140   2.912 -3.9503  1.5734 -0.3834
  289SOL     OW  865   2.241   1.040   0.188 -0.2620 -0.7405 -0.5818
  289SOL    HW1  866   2.256   1.114   0.117 -0.2056 -0.8470 -0.3008
  289SOL    HW2  867   2.153   1.050   0.240  1.2421  1.5301 -4.3489
  290SOL     OW  868   2.969   1.634   1.693 -0.1654 -0.4607 -0.3126
  290SOL    HW1  869   2.898   1.691   1.649 -0.4171  2.0658 -0.9114
  290SOL    HW2  870   3.046   1.613   1.634 -1.7742 -1.3147 -1.5007
  291SOL     OW  871   1.761   0.398   2.161 -0.1872  0.1273  0.0879
  291SOL    HW1  872   1.660   0.411   2.150  1.1981 -1.4794  0.3440
  291SOL    HW2  873   1.780   0.341   2.247  0.5329 -1.1581 -0.3099
  292SOL     OW  874   0.204   0.400   1.930 -0.3368 -0.5081 -0.0998
  292SOL    HW1  875   0.152   0.399   1.841  1.8410  3.3058 -0.1174
  292SOL    HW2  876   0.206   0.499   1.959 -0.9571  2.5737 -2.6614
  293SOL     OW  877   1.988   0.666   0.604 -0.5696  0.3929 -0.6930
  293SOL    HW1  878   1.889   0.685   0.622 -0.3028  0.6612  0.2703
  293SOL    HW2  879   2.019   0.710   0.517 -0.0952  0.0518 -0.1948
  294SOL     OW  880   2.847   0.663   0.013 -0.1541 -0.0949 -0.0227
  294SOL    HW1  881   2.909   0.652   0.091 -1.4484  3.2080 -0.7618
  294SOL    HW2  882   2.892   0.690  -0.075  1.0473  0.1788 -0.5182
  295SOL     OW  883   0.290   1.240   0.518 -0.0356  0.3859 -1.1201
  295SOL    HW1  884   0.292   1.166   0.451  0.1693  2.2434 -0.4479
  295SOL    HW2  885   0.314   1.197   0.610  1.6437 -1.1531  1.4859
  296SOL     OW  886   3.008   2.257   1.403 -0.5984 -0.2083  0.5959
  296SOL    HW1  887   2.922   2.245   1.342 -2.8657 -2.6522 -1.4784
  296SOL    HW2  888   3.066   2.325   1.358 -0.0754 -0.3818 -0.5303
  297SOL     OW  889   1.271   1.282   2.617 -0.5821  0.6632 -0.1254
  297SOL    HW1  890   1.312   1.236   2.535  3.3131 -1.1111 -1.3019
  297SOL    HW2  891   1.210   1.216   2.668  0.0191 -0.3765 -1.0666
  298SOL     OW  892   0.046   0.050   2.230 -0.1531 -0.5607  0.0196
  298SOL    HW1  893   0.086   0.140   2.225  2.4806 -1.6347  3.3701
  298SOL    HW2  894   0.054  -0.004   2.142 -0.5953  0.1025  0.1174
  299SOL     OW  895   1.156   0.581   2.525 -0.4991 -0.7094  0.0560
  299SOL    HW1  896   1.249   0.600   2.562  1.7932 -2.6825  2.1099
  299SOL    HW2  897   1.156   0.494   2.469 -0.5746  0.5064  1.6762
  300SOL     OW  898   1.931   2.331   2.143  0.1786 -0.4656  0.2311
  300SOL    HW1  899   1.926   2.231   2.160  0.7813 -1.3605  3.8204
  300SOL    HW2  900   2.028   2.356   2.128  0.6703 -1.8491 -0.6819
  301SOL     OW  901   2.616   0.872   1.916  0.5487  0.1333  0.7983
  301SOL    HW1  902   2.696   0.920   1.877  2.6077  1.1540  2.8743
  301SOL    HW2  903   2.647   0.788   1.971  2.5010 -2.4602 -0.4590
  302SOL     OW  904   1.069   2.401   1.054 -0.1164  0.6813  0.0328
  302SOL    HW1  905   1.062   2.466   1.137  2.4054  0.1039 -0.8620
  302SOL    HW2  906   1.019   2.444   0.975  2.0974  0.0404 -0.2639
  303SOL     OW  907   0.460   2.651   1.447  0.3447 -0.4313 -0.0141
  303SOL    HW1  908   0.456   2.623   1.542 -0.4016 -1.6285 -0.4517
  303SOL    HW2  909   0.422   2.743   1.428  1.0846  1.0962 -0.9702
  304SOL     OW  910   0.097   1.961   0.383  0.5667 -0.5745  0.0861
  304SOL    HW1  911   0.134   1.867   0.387  0.0510 -0.9636 -2.5003
  304SOL    HW2  912   0.135   2.018   0.308  0.6501  0.0901 -0.2506
  305SOL     OW  913   2.005   1.752   0.812 -0.4806  0.2611 -0.3114
  305SOL    HW1  914   1.975   1.825   0.749  1.6208  1.4726 -1.6279
  305SOL    HW2  915   2.100   1.767   0.844 -2.3928 -1.7169 -1.3100
  306SOL     OW  916   0.225   1.077   2.865  0.2867 -0.1783 -0.0766
  306SOL    HW1  917   0.166   1.151   2.826  0.9185  0.2773 -1.1428
  306SOL    HW2  918   0.169   0.992   2.865 -0.4790  0.7074 -0.9964
  307SOL     OW  919   0.081   1.576   1.536  0.0163 -0.9844  0.5120
  307SOL    HW1  920   0.160   1.541   1.597 -3.9293  1.1187  0.8740
  307SOL    HW2  921   0.084   1.676   1.531  0.3121  0.9244  0.7306
  308SOL     OW  922   0.734   0.410   1.303  0.1961  0.0003  0.1200
  308SOL    HW1  923   0.688   0.353   1.233  0.2909 -0.1942  2.7507
  308SOL    HW2  924   0.802   0.359   1.358  1.6593 -2.5044  0.9177
  309SOL     OW  925   0.959   0.760   2.460  0.0601  0.0110 -0.5044
  309SOL    HW1  926   0.871   0.761   2.507  0.6658  1.2402  0.3606
  309SOL    HW2  927   1.024   0.694   2.498  1.7909 -0.8788 -0.6058
  310SOL     OW  928   1.312   0.448   0.883 -0.3868  0.0547 -0.0326
  310SOL    HW1  929   1.273   0.514   0.954 -0.3304  2.2021  0.8893
  310SOL    HW2  930   1.240   0.379   0.857 -2.1849  1.3711  0.8111
  311SOL     OW  931   1.256   1.479   1.855 -0.4394  0.2976 -0.7608
  311SOL    HW1  932   1.314   1.443   1.932  1.3775  1.7549 -0.0786
  311SOL    HW2  933   1.311   1.524   1.783  2.7235 -0.3636  0.5091
  312SOL     OW  934   1.948   2.895   2.405 -0.4366 -0.1342 -0.0255
  312SOL    HW1  935   1.869   2.859   2.459 -0.9563  0.5169 -0.5935
  312SOL    HW2  936   1.999   2.816   2.364  0.7168  0.5769  1.0049
  313SOL     OW  937   0.147   0.010   0.753 -0.5681 -0.2670  0.2923
  313SOL    HW1  938   0.079  -0.065   0.739  1.2173 -0.6455 -0.7610
  313SOL    HW2  939   0.143   0.071   0.671  2.6134 -0.9735 -2.9547
  314SOL     OW  940   2.038   1.989   0.025 -0.1295 -0.9885 -0.3032
  314SOL    HW1  941   2.076   1.926   0.095 -0.8278  1.0965  2.9936
  314SOL    HW2  942   1.979   1.937  -0.036  1.0222  0.7302 -2.3654
  315SOL     OW  943   1.779   0.899   1.952 -1.2564 -0.0901 -0.3005
  315SOL    HW1  944   1.741   0.989   1.923 -1.4473 -2.1172  1.5474
  315SOL    HW2  945   1.875   0.915   1.986  0.1438 -1.4892  3.6496
  316SOL     OW  946   0.500   1.384   0.365 -0.5370 -0.0657 -0.3481
  316SOL    HW1  947   0.457   1.332   0.440  0.2263 -0.8678  0.2284
  316SOL    HW2  948   0.566   1.457   0.390 -0.8472  1.2866 -1.0819
  317SOL     OW  949   0.810   0.804   2.890  0.5706 -0.2250 -0.5210
  317SOL    HW1  950   0.766   0.872   2.831 -1.0245 -3.1292  1.2895
  317SOL    HW2  951   0.908   0.841   2.907  1.4878  0.9420 -1.2123
  318SOL     OW  952   2.786   2.397   1.868  0.1109  0.0718  0.1221
  318SOL    HW1  953   2.705   2.453   1.843 -1.6702  0.8562 -2.2810
  318SOL    HW2  954   2.861   2.404   1.802  1.7389  1.2951 -2.1994
  319SOL     OW  955   2.034   1.557   0.016  0.6100 -0.1255 -0.2254
  319SOL    HW1  956   1.957   1.496   0.054  0.7998  3.1968  0.5745
  319SOL    HW2  957   2.124   1.509   0.016 -1.2507 -0.0802 -0.5855
  320SOL     OW  958   1.233   0.517   1.694 -0.2343 -0.6992  0.1655
  320SOL    HW1  959   1.312   0.558   1.733 -3.2913 -0.9490 -1.8117
  320SOL    HW2  960   1.189   0.577   1.626 -0.6080  0.8381 -0.5712
  321SOL     OW  961   2.610   2.927   1.950  0.5269  0.0153  0.5209
  321SOL    HW1  962   2.709   2.926   1.977 -2.0586 -0.2957  1.4018
  321SOL    HW2  963   2.557   2.921   2.036 -1.9966 -2.3272  2.0522
  322SOL     OW  964   0.387   2.129   3.059 -0.1832 -0.2601 -0.2650
  322SOL    HW1  965   0.408   2.128   2.962 -0.2417 -1.8871  0.1645
  322SOL    HW2  966   0.473   2.142   3.120  0.9327 -0.2199  1.5548
  323SOL     OW  967   1.917   1.054   1.183  0.5766 -0.5458 -0.0375
  323SOL    HW1  968   1.982   0.971   1.185 -1.4252 -0.0138  0.9627
  323SOL    HW2  969   1.954   1.125   1.121 -2.9480 -2.4758  0.4252
  324SOL     OW  970   1.787   0.985   2.489  0.6450 -0.3746 -0.6092
  324SOL    HW1  971   1.822   0.890   2.491  1.7520  1.2487 -1.0309
  324SOL    HW2  972   1.685   0.987   2.502  0.7630 -1.3271 -3.5416
  325SOL     OW  973   1.517   0.971   2.495  0.1773  0.4746 -0.0297
  325SOL    HW1  974   1.474   0.966   2.588  1.5462  0.6368 -0.3421
  325SOL    HW2  975   1.508   0.884   2.436 -1.1746 -1.2679  1.9168
  326SOL     OW  976   2.304   1.459   0.551 -0.1591  0.6192 -0.6813
  326SOL    HW1  977   2.207   1.433   0.567 -0.8827 -1.4279  2.7965
  326SOL    HW2  978   2.329   1.437   0.452 -0.0872  0.0165 -4.1002
  327SOL     OW  979   2.772   0.546   2.655 -0.1944 -0.1288  0.2456
  327SOL    HW1  980   2.755   0.479   2.729  3.4276  1.8456  0.1458
  327SOL    HW2  981   2.726   0.516   2.566  0.3285  2.5975  0.4761
  328SOL     OW  982   1.778   0.330   0.932  0.7638  0.0706  0.5917
  328SOL    HW1  983   1.814   0.403   0.990 -3.1483  1.4217  0.5428
  328SOL    HW2  984   1.694   0.291   0.980 -0.5868  0.9466  1.5296
  329SOL     OW  985   2.384   1.373   1.210  0.1952 -0.9304 -0.0034
  329SOL    HW1  986   2.358   1.275   1.231 -1.8801  2.3224 -0.5167
  329SOL    HW2  987   2.486   1.386   1.209  0.3121 -1.4696  1.4543
  330SOL     OW  988   2.365   1.232   1.493 -0.0638 -0.2156  0.0289
  330SOL    HW1  989   2.342   1.188   1.407 -0.6064  1.3540  2.8768
  330SOL    HW2  990   2.370   1.167   1.572  1.0883 -0.3152  0.7649
  331SOL     OW  991   0.705   2.398   1.645  1.1374 -0.1378  0.3174
  331SOL    HW1  992   0.755   2.471   1.696  1.8955  0.6483 -0.3315
  331SOL    HW2  993   0.694   2.319   1.704  1.8276  0.6721 -1.8425
  332SOL     OW  994   1.739   2.127   1.410  0.2131 -0.7910  0.7592
  332SOL    HW1  995   1.804   2.178   1.350  0.4387 -0.6184 -1.4754
  332SOL    HW2  996   1.744   2.174   1.503  2.1869  0.8245  1.7677
  333SOL     OW  997   2.553   0.728   1.254  0.7012 -0.0969  0.0880
  333SOL    HW1  998   2.647   0.739   1.206  0.8996  0.4538 -0.5933
  333SOL    HW2  999   2.544   0.647   1.319  1.8152 -0.3405  0.0960
  334SOL     OW 1000   2.815   1.536   1.259  1.2642  0.4851 -0.2465
  334SOL    HW1 1001   2.880   1.498   1.327  0.7285 -0.6539 -1.1103
  334SOL    HW2 1002   2.810   1.641   1.261 -1.3937 -2.4553 -0.1075
  335SOL     OW 1003   1.177   0.951   2.522  0.1501 -0.5665  0.5679
  335SOL    HW1 1004   1.080   0.922   2.529  0.9483 -2.7353  4.2365
  335SOL    HW2 1005   1.205   0.962   2.424 -0.3403 -3.3696  2.3502
  336SOL     OW 1006   2.263   0.475   2.080  0.4307 -0.2672 -0.4198
  336SOL    HW1 1007   2.350   0.455   2.028  0.9516 -2.5605 -1.2468
  336SOL    HW2 1008   2.205   0.545   2.036  0.4912 -1.5627 -1.0608
  337SOL     OW 1009   0.676   1.612   1.896 -0.0115  0.4551  0.1640
  337SOL    HW1 1010   0.595   1.670   1.872  1.2092  1.3799 -0.3181
  337SOL    HW2 1011   0.750   1.671   1.938  1.3113  1.6355  1.1656
  338SOL     OW 1012   0.678   2.197   1.864 -0.1759  0.2694 -0.0865
  338SOL    HW1 1013   0.707   2.210   1.966  0.0801 -0.9092  3.1126
  338SOL    HW2 1014   0.735   2.118   1.830  2.3130  0.2562  0.9074
  339SOL     OW 1015   2.420   1.127   2.697 -0.2673  0.5819 -0.3292
  339SOL    HW1 1016   2.465   1.178   2.614 -0.6735 -1.6215  0.3628
  339SOL    HW2 1017   2.441   1.025   2.693  3.5761 -0.4286  1.0710
  340SOL     OW 1018   1.320   2.787   1.238 -0.0200  0.5720  0.3287
  340SOL    HW1 1019   1.365   2.705   1.196  0.0326  0.0552  1.7736
  340SOL    HW2 1020   1.342   2.787   1.336  0.0695 -1.9923 -2.1792
  341SOL     OW 1021   2.149   1.387   1.912 -0.1675  0.1155 -0.1941
  341SOL    HW1 1022   2.249   1.412   1.897  0.6647 -2.5982 -1.9306
  341SOL    HW2 1023   2.104   1.459   1.968 -0.5754 -1.1744  1.1059
  342SOL     OW 1024   2.041   1.964   2.742 -0.6031  0.3193  0.2618
  342SOL    HW1 1025   1.978   1.910   2.807 -0.8558  1.2372 -2.8686
  342SOL    HW2 1026   1.995   2.053   2.717  1.4451 -0.5337  2.3871
  343SOL     OW 1027   0.669   2.361   0.606 -0.2059  0.5047 -0.2275
  343SOL    HW1 1028   0.741   2.315   0.665 -2.5512  0.3739  1.0976
  343SOL    HW2 1029   0.609   2.422   0.657 -0.2024 -2.1591 -0.2673
  344SOL     OW 1030   0.089   2.550   1.580 -0.0776  0.4239 -0.4827
  344SOL    HW1 1031   0.153   2.554   1.657 -2.9754  0.9173  0.2164
  344SOL    HW2 1032   0.093   2.630   1.520  0.4909  0.9826 -0.7675
  345SOL     OW 1033   2.019   2.761   2.934 -0.0118  0.0768 -0.3959
  345SOL    HW1 1034   2.073   2.844   2.973 -0.8364  2.3098 -0.8738
  345SOL    HW2 1035   2.074   2.685   2.888  0.9833  1.5405 -0.3712
  346SOL     OW 1036   1.934   1.863   1.099  0.5121  0.1608 -0.7392
  346SOL    HW1 1037   1.913   1.794   1.175 -1.6803  0.3123 -0.6958
  346SOL    HW2 1038   1.965   1.818   1.013 -0.5372 -0.4616  0.6233
  347SOL     OW 1039   0.999   2.357   2.056  0.0086 -0.0221 -0.7041
  347SOL    HW1 1040   1.015   2.285   1.984  1.8737  1.1575 -3.4414
  347SOL    HW2 1041   1.022   2.452   2.023 -1.4429 -0.4898 -1.1031
  348SOL     OW 1042   0.296   2.755   0.599  0.1859  0.0621  0.0057
  348SOL    HW1 1043   0.360   2.730   0.522  0.0612  1.6831  1.6060
  348SOL    HW2 1044   0.341   2.819   0.664 -0.3289 -0.0094 -0.7097
  349SOL     OW 1045   0.952   0.886   1.935 -0.1726 -0.1885 -0.3462
  349SOL    HW1 1046   0.894   0.821   1.878 -1.1127  0.8146  2.0449
  349SOL    HW2 1047   0.960   0.851   2.031  1.2288 -1.1301  2.0702
  350SOL     OW 1048   2.812   1.798   1.290  0.0045  0.1901 -0.3171
  350SOL    HW1 1049   2.876   1.876   1.294 -0.5257 -0.6876  0.9404
  350SOL    HW2 1050   2.713   1.823   1.261  3.3447  2.3672  1.0610
  351SOL     OW 1051   0.960   0.291   1.628  0.2775 -0.1496  0.9285
  351SOL    HW1 1052   1.059   0.274   1.645 -1.5600 -1.5465  1.1220
  351SOL    HW2 1053   0.934   0.270   1.527 -1.3097  2.3381 -1.7083
  352SOL     OW 1054   0.350   1.163   0.770 -0.3264  0.7318 -1.1782
  352SOL    HW1 1055   0.286   1.144   0.846 -0.8824 -0.5538 -1.5656
  352SOL    HW2 1056   0.436   1.201   0.806  0.1452 -2.3243  0.7597
  353SOL     OW 1057   0.656   1.516   2.368  0.6280 -0.2909 -0.6788
  353SOL    HW1 1058   0.647   1.617   2.358 -0.6375  0.9944 -0.0292
  353SOL    HW2 1059   0.619   1.466   2.288 -0.4752  0.8209  0.4592
  354SOL     OW 1060   0.987   2.318   1.590 -0.5197 -0.4421 -0.4989
  354SOL    HW1 1061   0.897   2.376   1.591  0.4736 -1.6240 -0.8421
  354SOL    HW2 1062   1.072   2.377   1.599  1.6785 -0.1124 -0.4810
  355SOL     OW 1063   1.625   0.632   2.599  0.1961 -0.1733  0.0844
  355SOL    HW1 1064   1.566   0.651   2.514 -1.0079 -0.9862 -3.7332
  355SOL    HW2 1065   1.725   0.624   2.585  3.1613 -0.5607 -2.9730
  356SOL     OW 1066   1.393   2.210   0.920  0.1074  0.2355  0.0897
  356SOL    HW1 1067   1.353   2.250   1.008  1.7858 -0.2906 -1.3446
  356SOL    HW2 1068   1.375   2.107   0.912  0.2118 -1.4763 -0.5269
  357SOL     OW 1069   2.831   3.092   1.005  0.5115  0.7897 -0.0429
  357SOL    HW1 1070   2.830   3.122   0.906 -0.0199 -0.5612  1.2479
  357SOL    HW2 1071   2.769   3.009   1.024  0.2165 -0.2618 -3.2830
  358SOL     OW 1072   2.218   1.839   1.514 -0.6198  0.6038  0.0596
  358SOL    HW1 1073   2.136   1.896   1.537  0.0847 -1.6666  4.0032
  358SOL    HW2 1074   2.185   1.745   1.506  3.4173  1.3983 -1.7454
  359SOL     OW 1075   1.742   2.017   1.931 -0.2947 -0.4034 -0.4028
  359SOL    HW1 1076   1.735   2.114   1.909 -0.0620 -1.0662  1.0221
  359SOL    HW2 1077   1.656   1.982   1.968 -2.5253 -0.6292 -0.1795
  360SOL     OW 1078   1.981   1.952   1.609  0.5370 -0.1220  1.0216
  360SOL    HW1 1079   1.985   2.057   1.612 -0.4480  0.9556  1.1479
  360SOL    HW2 1080   1.887   1.919   1.593 -0.6534  1.0527 -1.8745
  361SOL     OW 1081   0.992   2.031   2.413  0.5602  0.3697  0.0646
  361SOL    HW1 1082   1.081   2.019   2.366  2.7365 -3.0938  0.4880
  361SOL    HW2 1083   0.991   1.968   2.494 -0.2231  3.4331  1.7296
  362SOL     OW 1084   1.012   1.794   1.064 -0.3240 -0.4994 -0.4287
  362SOL    HW1 1085   1.019   1.737   0.981 -0.0950  1.6155  2.3481
  362SOL    HW2 1086   0.958   1.737   1.127  0.5019  0.8151 -2.8124
  363SOL     OW 1087   0.698   0.868   2.535 -0.0096  0.1546  0.4919
  363SOL    HW1 1088   0.615   0.834   2.483  1.2898 -0.1888  0.5770
  363SOL    HW2 1089   0.690   0.967   2.545 -2.4803  0.1693 -0.9503
  364SOL     OW 1090   0.418   0.659   1.514  0.4512  0.6130  0.3793
  364SOL    HW1 1091   0.331   0.608   1.513 -2.3176  1.0913  0.9488
  364SOL    HW2 1092   0.498   0.605   1.549 -0.8270  0.0310  2.4618
  365SOL     OW 1093   1.044   0.912   0.106 -0.0439 -0.0104 -0.5139
  365SOL    HW1 1094   1.088   0.824   0.135  0.5121  3.0995 -0.3201
  365SOL    HW2 1095   1.044   0.981   0.182  3.1138  0.4859 -0.3342
  366SOL     OW 1096   2.445   0.887   2.902  0.0910  0.3068 -0.0397
  366SOL    HW1 1097   2.535   0.937   2.915  0.3483 -0.2458 -1.7986
  366SOL    HW2 1098   2.462   0.792   2.863 -0.7331 -1.5298 -1.4174
  367SOL     OW 1099   0.388   2.349   2.818 -0.0159 -0.7094 -0.5698
  367SOL    HW1 1100   0.412   2.401   2.736  3.0625 -2.0826  2.3280
  367SOL    HW2 1101   0.434   2.256   2.819  0.6927 -0.9351 -2.1049
  368SOL     OW 1102   0.568   0.758   1.912 -0.0920 -0.4257 -0.6353
  368SOL    HW1 1103   0.656   0.757   1.857 -0.0599  2.1201 -1.5743
  368SOL    HW2 1104   0.530   0.663   1.905 -1.5387 -1.5524  1.0227
  369SOL     OW 1105   0.643   1.724   0.222  0.7762 -0.0550  0.3616
  369SOL    HW1 1106   0.547   1.754   0.232  0.3020  2.1007  1.1741
  369SOL    HW2 1107   0.670   1.650   0.283  1.5760 -1.0386 -0.2622
  370SOL     OW 1108   0.157   0.416   0.791  0.5807  0.1412 -0.4163
  370SOL    HW1 1109   0.084   0.410   0.723  1.9614 -3.1413  2.4038
  370SOL    HW2 1110   0.120   0.443   0.880 -0.8372 -0.5311  0.6298
  371SOL     OW 1111   0.732   2.602   0.499  1.0757  0.1324 -0.7561
  371SOL    HW1 1112   0.727   2.501   0.527 -2.2772 -0.7532 -1.1340
  371SOL    HW2 1113   0.784   2.609   0.410  1.4237  0.8262  0.0037
  372SOL     OW 1114   0.461   2.851   2.676  0.2938 -0.1450 -0.0962
  372SOL    HW1 1115   0.410   2.831   2.589 -1.6998  0.6975 -2.1899
  372SOL    HW2 1116   0.398   2.868   2.754  2.2127  0.5064 -2.1463
  373SOL     OW 1117   2.803   2.522   2.981  0.3451 -0.1577 -0.1524
  373SOL    HW1 1118   2.756   2.464   3.053 -2.5950  0.1924  0.7457
  373SOL    HW2 1119   2.879   2.469   2.938  0.8120  2.0903 -2.3528
  374SOL     OW 1120   2.833   0.321   2.228 -0.5657  0.1495  0.2987
  374SOL    HW1 1121   2.883   0.286   2.147 -0.8929 -0.5589 -0.4866
  374SOL    HW2 1122   2.812   0.243   2.288 -0.2073 -3.2341 -0.6947
  375SOL     OW 1123   0.880   0.942   0.418  0.6571 -0.1560  0.2509
  375SOL    HW1 1124   0.968   0.981   0.447  0.7142  0.1634  1.4386
  375SOL    HW2 1125   0.878   0.841   0.421  0.1165  0.7907  0.0059
  376SOL     OW 1126   0.808   2.850   1.988 -0.0919  0.5032  0.2847
  376SOL    HW1 1127   0.757   2.816   1.910  0.1962  2.6068 -0.2573
  376SOL    HW2 1128   0.836   2.946   1.979 -0.8267  4.3100 -1.9680
  377SOL     OW 1129   0.459   2.047   2.001  0.0187 -0.1739 -0.4018
  377SOL    HW1 1130   0.554   2.044   1.963 -1.7737  1.4932  0.8964
  377SOL    HW2 1131   0.400   2.014   1.928  0.1889 -3.6548  1.2986
  378SOL     OW 1132   1.881   0.735   2.482  0.4799 -0.1308 -0.2684
  378SOL    HW1 1133   1.975   0.728   2.515 -1.1236 -1.4068 -0.6443
  378SOL    HW2 1134   1.884   0.693   2.390  0.9234  2.6806  0.2088
  379SOL     OW 1135   1.273   0.499   2.166 -0.3648  0.2384 -0.1762
  379SOL    HW1 1136   1.241   0.586   2.210 -0.0143 -0.7778  1.6178
  379SOL    HW2 1137   1.226   0.480   2.079  0.5976  0.2800 -0.9330
  380SOL     OW 1138   3.045   1.916   1.831 -0.5588 -0.1186 -0.1393
  380SOL    HW1 1139   3.060   1.817   1.820 -2.0943 -0.4839 -1.5924
  380SOL    HW2 1140   3.038   1.961   1.741  2.2539  1.5011  0.6698
  381SOL     OW 1141   2.007   1.061   2.307  0.2655 -0.0814  0.1272
  381SOL    HW1 1142   1.942   1.022   2.375  2.1456 -1.7457  1.3514
  381SOL    HW2 1143   2.083   1.110   2.350  3.4756 -1.5178 -0.9973
  382SOL     OW 1144   2.714   0.918   0.655  0.4957  0.1434 -0.0608
  382SOL    HW1 1145   2.774   0.885   0.581  0.1747 -0.6951  0.2079
  382SOL    HW2 1146   2.636   0.969   0.616  1.6126 -0.2128 -0.8795
  383SOL     OW 1147   1.664   1.718   2.855  0.5482 -0.0065  0.8183
  383SOL    HW1 1148   1.662   1.625   2.900  0.6708  0.2095 -4.5524
  383SOL    HW2 1149   1.618   1.712   2.767 -1.1616  2.5287  0.3289
  384SOL     OW 1150   0.088   1.905   2.298 -0.1005 -0.5662  0.2870
  384SOL    HW1 1151   0.100   1.944   2.203 -1.1743 -0.6056  3.0929
  384SOL    HW2 1152   0.129   1.964   2.369  1.8580 -0.6663 -0.6609
  385SOL     OW 1153   2.023   1.077   0.367 -0.6249  0.0321 -0.2062
  385SOL    HW1 1154   1.921   1.066   0.343 -1.2207 -2.4077  0.6852
  385SOL    HW2 1155   2.041   1.171   0.398 -1.1604 -0.2662  2.1082
  386SOL     OW 1156   2.869   0.944   1.836 -0.1274  0.3743  0.1536
  386SOL    HW1 1157   2.908   1.009   1.769 -2.1567  3.7493  0.9667
  386SOL    HW2 1158   2.915   0.959   1.925  0.0724 -0.9075 -0.7290
  387SOL     OW 1159   0.282   1.488   1.707  0.1823  0.1992  0.3415
  387SOL    HW1 1160   0.230   1.479   1.795  0.9099 -0.6801  1.3932
  387SOL    HW2 1161   0.366   1.541   1.725  1.0763 -0.7240  0.2806
  388SOL     OW 1162   0.545   1.478   2.611  0.0079  0.5047  0.4300
  388SOL    HW1 1163   0.591   1.500   2.523 -1.1525 -2.6433  0.1864
  388SOL    HW2 1164   0.609   1.449   2.687  1.7493 -1.1279  1.2748
  389SOL     OW 1165   0.202   0.282   2.215 -0.5499  0.1438 -0.4370
  389SOL    HW1 1166   0.165   0.359   2.274  0.0494  1.8970 -0.1866
  389SOL    HW2 1167   0.185   0.292   2.114  0.3902  1.9458 -0.0697
  390SOL     OW 1168   0.648   0.512   1.525  0.0973  0.2140 -0.2756
  390SOL    HW1 1169   0.668   0.478   1.430 -0.5056 -0.5094 -0.5529
  390SOL    HW2 1170   0.732   0.566   1.563 -1.0731  2.0095  0.9286
  391SOL     OW 1171   2.069   0.738   3.089 -0.5249 -0.1124  0.2626
  391SOL    HW1 1172   2.158   0.750   3.135 -0.7570  2.2097 -2.4094
  391SOL    HW2 1173   1.999   0.733   3.164  0.2677  0.3993  2.5937
  392SOL     OW 1174   2.663   0.356   2.821 -0.4713 -0.3120  0.1224
  392SOL    HW1 1175   2.661   0.415   2.906 -0.0344  4.5802  0.2218
  392SOL    HW2 1176   2.592   0.282   2.823  0.0447  1.7621 -0.7081
  393SOL     OW 1177   0.697   1.293   0.208 -0.5456 -0.2217  0.5012
  393SOL    HW1 1178   0.775   1.351   0.233  0.9665 -1.2549  2.0873
  393SOL    HW2 1179   0.626   1.304   0.283 -1.4535  1.8793 -0.8637
  394SOL     OW 1180   2.546   2.053   0.072  0.0554  0.0111  0.4133
  394SOL    HW1 1181   2.448   2.072   0.044  0.2042  0.4608 -1.7149
  394SOL    HW2 1182   2.579   1.973   0.020  0.6522 -0.7222  0.7500
  395SOL     OW 1183   2.907   0.215   2.825  0.1827 -0.1527  0.3917
  395SOL    HW1 1184   2.990   0.272   2.802 -2.8657  1.2570 -1.6403
  395SOL    HW2 1185   2.825   0.276   2.837  1.3397  1.0434  1.4732
  396SOL     OW 1186   2.768   3.046   1.373 -0.7911 -0.0145  0.0801
  396SOL    HW1 1187   2.750   2.949   1.363 -2.2692  0.9319  1.6080
  396SOL    HW2 1188   2.733   3.100   1.297  1.6763  1.5095 -1.5783
  397SOL     OW 1189   2.574   2.545   1.802 -0.5613  0.3172  0.2614
  397SOL    HW1 1190   2.584   2.649   1.794  0.2766  1.6831  0.5877
  397SOL    HW2 1191   2.543   2.500   1.714  1.2127 -2.8824 -1.4927
  398SOL     OW 1192   0.704   0.656   3.093 -0.3047 -0.2192 -0.0887
  398SOL    HW1 1193   0.741   0.716   3.020  1.4844 -1.2757  1.3667
  398SOL    HW2 1194   0.754   0.675   3.179  0.6895  2.4931 -2.2741
  399SOL     OW 1195   2.708   0.082   1.612  0.0586 -0.6345 -0.4195
  399SOL    HW1 1196   2.726   0.026   1.530 -0.1827  0.6193 -0.4004
  399SOL    HW2 1197   2.619   0.059   1.656  1.3439 -1.6146  0.9037
  400SOL     OW 1198   1.561   2.791   2.374 -0.6909  0.3104  0.1663
  400SOL    HW1 1199   1.541   2.883   2.335 -0.9641 -0.5494 -0.1517
  400SOL    HW2 1200   1.625   2.797   2.454  0.4820 -1.7929 -1.6583
  401SOL     OW 1201   0.300   1.521   2.758  0.5564 -0.0242 -0.3670
  401SOL    HW1 1202   0.390   1.514   2.707 -2.0100 -1.5508 -0.5308
  401SOL    HW2 1203   0.315   1.563   2.844  1.0160 -0.7636  0.2379
  402SOL     OW 1204   0.572   0.014   0.577  0.1231  0.2963 -0.0256
  402SOL    HW1 1205   0.514  -0.047   0.632 -1.6119  3.2042 -0.5823
  402SOL    HW2 1206   0.574  -0.025   0.482  1.6462 -0.7292  1.3224
  403SOL     OW 1207   2.513   1.929   2.128 -0.1444 -0.1031 -0.6346
  403SOL    HW1 1208   2.439   1.905   2.192  1.3979 -0.6069 -0.1456
  403SOL    HW2 1209   2.581   1.848   2.116  0.5906  3.6742  3.0579
  404SOL     OW 1210   2.209   2.886   0.158  0.5429 -0.1958 -0.6070
  404SOL    HW1 1211   2.145   2.914   0.082 -1.7466 -0.2910 -0.3508
  404SOL    HW2 1212   2.285   2.835   0.117 -0.0051  1.3222  1.4086
  405SOL     OW 1213   0.594   1.382   3.074 -0.6133 -0.0308 -0.2616
  405SOL    HW1 1214   0.645   1.322   3.138 -0.9232 -0.0906 -0.9887
  405SOL    HW2 1215   0.504   1.336   3.057  2.0933  0.6475  0.9384
  406SOL     OW 1216   1.468   1.348   2.787  0.0760  0.5731 -0.3151
  406SOL    HW1 1217   1.542   1.368   2.721 -0.5520 -1.1648 -1.9818
  406SOL    HW2 1218   1.380   1.328   2.740  0.0181  1.9765 -3.2562
  407SOL     OW 1219   2.860   2.898   2.019 -0.0930  0.1102  0.2066
  407SOL    HW1 1220   2.906   2.928   1.931  3.2639  0.3192 -0.8290
  407SOL    HW2 1221   2.902   2.953   2.101  1.6142  1.9458  0.1772
  408SOL     OW 1222   0.322   0.890   1.880  0.6688  0.3452  0.2071
  408SOL    HW1 1223   0.332   0.914   1.783 -0.0025  0.6869 -0.3515
  408SOL    HW2 1224   0.413   0.859   1.917  0.9918 -5.5680 -0.2730
  409SOL     OW 1225   0.234   2.762   1.863 -0.4877  0.4037 -0.1280
  409SOL    HW1 1226   0.280   2.826   1.928 -0.2000 -1.4748 -0.4517
  409SOL    HW2 1227   0.177   2.690   1.906 -1.9265  0.9947  0.0078
  410SOL     OW 1228   2.285   2.253   1.500  0.3463 -0.1235  0.4254
  410SOL    HW1 1229   2.227   2.296   1.428  1.5537 -0.7429  0.1776
  410SOL    HW2 1230   2.359   2.316   1.537 -1.9229  3.0396 -0.2159
  411SOL     OW 1231   1.811   2.284   1.625 -0.3158  0.0401 -0.1185
  411SOL    HW1 1232   1.909   2.284   1.647  0.1664 -0.0538 -2.6827
  411SOL    HW2 1233   1.762   2.290   1.711 -3.7344 -2.8497  3.7452
  412SOL     OW 1234   2.081   0.854   1.166 -0.4706 -0.2043  0.7926
  412SOL    HW1 1235   2.104   0.886   1.264  1.5613 -0.0111 -1.8745
  412SOL    HW2 1236   2.167   0.813   1.130  0.4402 -2.2350 -3.5239
  413SOL     OW 1237   0.312   2.807   2.459  0.1859 -0.1578  0.2775
  413SOL    HW1 1238   0.264   2.719   2.485 -0.3661 -1.0455 -2.3433
  413SOL    HW2 1239   0.241   2.884   2.458 -1.9803 -1.1946 -1.9357
  414SOL     OW 1240   2.274   1.446   0.028  0.4980 -0.1729 -0.3793
  414SOL    HW1 1241   2.277   1.346   0.010 -0.1649 -1.2912 -0.1644
  414SOL    HW2 1242   2.306   1.506  -0.046 -2.1837 -1.2929  2.3055
  415SOL     OW 1243   1.141   2.028   0.512  0.0085 -0.5806 -0.2148
  415SOL    HW1 1244   1.236   2.057   0.502  0.8739  0.5676  1.5082
  415SOL    HW2 1245   1.092   2.009   0.424 -0.4464  1.3394  0.8056
  416SOL     OW 1246   2.152   2.077   0.398  0.1918 -0.1906  0.0119
  416SOL    HW1 1247   2.102   2.168   0.391 -0.9333 -0.0186  0.4857
  416SOL    HW2 1248   2.246   2.087   0.360 -0.2026  0.2611  0.4501
  417SOL     OW 1249   2.886   2.030   2.011  0.0620 -0.2536 -0.7392
  417SOL    HW1 1250   2.804   2.047   1.950 -2.1298 -1.4231 -0.1286
  417SOL    HW2 1251   2.946   1.974   1.947 -0.3181 -0.3863 -1.3176
  418SOL     OW 1252   2.701   3.087   0.356 -0.4516 -0.1239  0.7307
  418SOL    HW1 1253   2.753   3.173   0.360 -1.3684 -0.5363 -3.1005
  418SOL    HW2 1254   2.726   3.034   0.270 -1.5951  0.9994  0.3686
  419SOL     OW 1255   1.469   2.795   0.059 -0.1849  0.3440  0.3796
  419SOL    HW1 1256   1.437   2.699   0.061 -0.5221  1.4127 -1.7634
  419SOL    HW2 1257   1.395   2.851   0.107 -0.8358  0.7937 -1.7643
  420SOL     OW 1258   0.381   0.933   1.610  0.3799  0.2039  0.4616
  420SOL    HW1 1259   0.398   0.837   1.583 -0.8140  0.3637 -2.1360
  420SOL    HW2 1260   0.328   0.975   1.535 -2.1732 -0.9668  0.4287
  421SOL     OW 1261   1.831   2.636   0.733 -0.3312 -0.1370 -0.4000
  421SOL    HW1 1262   1.893   2.710   0.764  0.8050 -1.3800 -2.8042
  421SOL    HW2 1263   1.872   2.544   0.755 -0.3472  2.1512  0.4172
  422SOL     OW 1264   2.352   0.535   0.644 -0.2249  0.6158  0.2025
  422SOL    HW1 1265   2.364   0.433   0.622 -1.3134  1.5589  1.6161
  422SOL    HW2 1266   2.438   0.570   0.685 -0.9181 -0.3805  0.5121
  423SOL     OW 1267   1.238   2.741   1.666 -0.2636 -0.1359  0.0387
  423SOL    HW1 1268   1.231   2.806   1.745 -0.9772  0.1345  1.1087
  423SOL    HW2 1269   1.334   2.754   1.623  0.9128  2.6295  1.1732
  424SOL     OW 1270   1.688   2.472   1.308  0.5054  0.0764  0.0780
  424SOL    HW1 1271   1.771   2.415   1.292 -1.8240 -0.7337  0.8890
  424SOL    HW2 1272   1.693   2.537   1.386 -1.0388  0.2288  0.7573
  425SOL     OW 1273   2.975   1.754   2.720  0.4245 -0.2454  0.3935
  425SOL    HW1 1274   3.039   1.677   2.703  0.4208  2.4428 -0.1279
  425SOL    HW2 1275   3.021   1.834   2.761  1.9168 -3.1519 -0.6819
  426SOL     OW 1276   0.932   2.885   2.549 -0.7995 -0.1335 -0.0458
  426SOL    HW1 1277   0.881   2.938   2.477  1.3282 -3.0971  0.9220
  426SOL    HW2 1278   0.938   2.930   2.642  1.2935 -0.1314 -4.1591
  427SOL     OW 1279   1.127   2.523   0.005 -0.4173 -0.3367  0.4147
  427SOL    HW1 1280   1.229   2.519   0.010  1.0942  0.7458 -2.4394
  427SOL    HW2 1281   1.101   2.465  -0.074  2.4101  1.5460 -2.4157
  428SOL     OW 1282   0.405   1.274   1.546  0.2590  0.6978 -1.1421
  428SOL    HW1 1283   0.359   1.184   1.548 -0.8115 -2.6784 -2.1085
  428SOL    HW2 1284   0.360   1.331   1.615 -0.9218 -2.2128 -0.0546
  429SOL     OW 1285   2.477   2.983   0.485 -0.2380 -0.3212 -0.6414
  429SOL    HW1 1286   2.403   3.047   0.473 -0.0998 -0.4148 -1.0761
  429SOL    HW2 1287   2.559   3.023   0.437  0.5685 -1.0762  0.6280
  430SOL     OW 1288   1.228   1.757   2.488  0.0252  0.2143 -0.0413
  430SOL    HW1 1289   1.161   1.819   2.531  0.2140 -2.4085  1.1687
  430SOL    HW2 1290   1.216   1.757   2.387  2.6597 -0.8847 -1.9834
  431SOL     OW 1291   0.277   2.183   0.673 -0.3147  0.1829  0.4592
  431SOL    HW1 1292   0.303   2.181   0.573  3.2956  0.1112  1.9800
  431SOL    HW2 1293   0.191   2.237   0.677 -0.2684 -0.5068 -1.2657
  432SOL     OW 1294   1.089   2.411   2.305  0.8072  0.6400  0.0738
  432SOL    HW1 1295   1.054   2.386   2.212  0.9644  1.4351 -0.4678
  432SOL    HW2 1296   1.187   2.446   2.292  2.4632  2.7422 -2.6078
  433SOL     OW 1297   1.050   0.882   2.922 -0.2986  0.7486  0.5903
  433SOL    HW1 1298   1.046   0.911   3.020 -2.1134  2.1083 -0.7969
  433SOL    HW2 1299   1.097   0.952   2.866  1.8580 -1.6687  1.2292
  434SOL     OW 1300   0.933   2.022   0.703  0.3440 -0.0353 -0.3242
  434SOL    HW1 1301   0.866   1.956   0.662  3.1172 -1.5846  1.9837
  434SOL    HW2 1302   1.027   2.014   0.658 -1.3608  1.2897  0.5162
  435SOL     OW 1303   0.889   0.510   0.780  0.2008 -0.2754  0.9114
  435SOL    HW1 1304   0.806   0.541   0.732 -0.6153  2.7498  2.2793
  435SOL    HW2 1305   0.940   0.436   0.724  1.6023 -0.3246 -1.6139
  436SOL     OW 1306   0.094   0.677   0.603  0.3577  0.4536 -0.0150
  436SOL    HW1 1307   0.060   0.589   0.644  0.7602 -1.0197 -0.6388
  436SOL    HW2 1308   0.129   0.733   0.680 -0.3490  1.2816  0.5944
  437SOL     OW 1309   1.500   1.822   1.770 -0.0885  0.1446 -1.1271
  437SOL    HW1 1310   1.525   1.729   1.734 -0.6411  0.4003  0.0778
  437SOL    HW2 1311   1.399   1.824   1.785 -0.6330  1.2375 -0.5428
  438SOL     OW 1312   0.946   0.306   0.592  0.0519 -0.4041  0.0134
  438SOL    HW1 1313   0.990   0.344   0.506  0.0220  0.2393  1.1911
  438SOL    HW2 1314   0.856   0.262   0.569 -4.4623  0.7773 -1.6562
  439SOL     OW 1315   2.154   3.003   1.588 -0.2050 -0.3220 -0.6118
  439SOL    HW1 1316   2.134   2.975   1.494 -2.0126  0.7699  1.4676
  439SOL    HW2 1317   2.089   2.956   1.654  0.9082  1.2425 -0.9088
  440SOL     OW 1318   0.490   2.852   3.054  0.1450 -0.0386  0.6720
  440SOL    HW1 1319   0.567   2.812   2.999 -0.4893  0.8348 -2.7300
  440SOL    HW2 1320   0.419   2.885   2.990  1.5435  0.7431 -1.1050
  441SOL     OW 1321   0.362   1.168   1.162 -0.0674  0.6860 -0.4225
  441SOL    HW1 1322   0.415   1.238   1.101  0.9223 -2.7539  2.6351
  441SOL    HW2 1323   0.424   1.112   1.218  1.1929  0.2302  0.2115
  442SOL     OW 1324   2.369   1.819   0.313  0.2727  0.1907 -1.0537
  442SOL    HW1 1325   2.280   1.793   0.262  1.0037  2.5558  1.1448
  442SOL    HW2 1326   2.389   1.920   0.312 -0.6981 -1.5116 -0.0127
  443SOL     OW 1327   2.285   2.807   2.615  0.2502 -0.8382 -0.2759
  443SOL    HW1 1328   2.257   2.726   2.555  0.8289  0.8759  4.0915
  443SOL    HW2 1329   2.257   2.890   2.570 -1.0424 -1.7493 -2.8929
  444SOL     OW 1330   1.737   2.646   2.877 -0.2350  0.6234 -0.5752
  444SOL    HW1 1331   1.792   2.566   2.838  1.8502  1.0497 -1.6143
  444SOL    HW2 1332   1.779   2.671   2.969  1.2401 -0.6515  0.8363
  445SOL     OW 1333   0.152   1.450   2.316 -0.2015 -0.0969  0.5778
  445SOL    HW1 1334   0.180   1.368   2.368  2.0027  1.0249 -0.7210
  445SOL    HW2 1335   0.235   1.505   2.284  1.2874 -1.8295 -1.0333
  446SOL     OW 1336   0.678   1.106   2.315  0.3441  0.1646  0.3294
  446SOL    HW1 1337   0.767   1.146   2.288  0.6879 -1.4473 -1.2336
  446SOL    HW2 1338   0.658   1.037   2.247 -1.2110 -3.5415  1.2582
  447SOL     OW 1339   0.913   0.262   3.001  0.6302  0.0670 -0.0799
  447SOL    HW1 1340   0.862   0.350   3.018  0.1632 -1.5567 -0.8696
  447SOL    HW2 1341   0.964   0.230   3.083 -2.5733 -0.9141 -1.2802
  448SOL     OW 1342   1.714   1.153   1.915 -0.0633 -0.3679 -0.5077
  448SOL    HW1 1343   1.730   1.232   1.856 -0.7600  0.9654 -0.6047
  448SOL    HW2 1344   1.617   1.127   1.909  1.5720 -0.7432 -1.5541
  449SOL     OW 1345   2.010   2.253   0.081  0.4389 -0.1958 -0.2504
  449SOL    HW1 1346   2.004   2.151   0.063  2.2278  1.0824  1.3925
  449SOL    HW2 1347   2.098   2.292   0.045  1.3408 -0.6476  3.6531
  450SOL     OW 1348   1.507   1.551   1.696 -0.3380  0.5674  0.3272
  450SOL    HW1 1349   1.579   1.477   1.717  1.7858 -1.5650 -1.8005
  450SOL    HW2 1350   1.477   1.558   1.600  0.0309  3.1278  0.3678
  451SOL     OW 1351   2.830   1.315   1.525  0.6404 -0.2077 -0.0236
  451SOL    HW1 1352   2.832   1.330   1.623 -2.8052 -1.8916 -0.2000
  451SOL    HW2 1353   2.908   1.365   1.487  1.4966 -0.3224  2.1645
  452SOL     OW 1354   1.264   1.841   1.167 -0.3253 -0.1507  0.9097
  452SOL    HW1 1355   1.168   1.823   1.137  0.0685  0.0872  2.7207
  452SOL    HW2 1356   1.288   1.935   1.142  0.3057 -0.2942 -1.4720
  453SOL     OW 1357   0.100   1.907   0.026 -0.4846 -0.4021 -0.1708
  453SOL    HW1 1358   0.193   1.933   0.066 -0.4954 -0.5322  2.0061
  453SOL    HW2 1359   0.033   1.984   0.038  0.8072  1.8652 -0.2511
  454SOL     OW 1360   1.688   1.821   0.659 -0.0775  0.3397 -0.6269
  454SOL    HW1 1361   1.653   1.745   0.599  3.0052 -2.2604 -0.3555
  454SOL    HW2 1362   1.776   1.864   0.622 -1.0634  1.0163  1.5564
  455SOL     OW 1363   1.792   0.199   0.473  0.3802 -0.4760  0.1475
  455SOL    HW1 1364   1.881   0.154   0.495 -0.0105  2.4628  1.7659
  455SOL    HW2 1365   1.800   0.259   0.392  1.0292  3.7736 -0.8287
  456SOL     OW 1366   1.716   2.933   0.150 -0.3820  1.0724 -0.7171
  456SOL    HW1 1367   1.754   2.990   0.073 -0.7652  0.8206  0.2573
  456SOL    HW2 1368   1.621   2.900   0.128  0.7583  2.6304 -1.0381
  457SOL     OW 1369   2.645   1.167   1.893 -0.0302  0.4421 -0.2454
  457SOL    HW1 1370   2.714   1.215   1.839 -1.5654 -0.4720 -1.5843
  457SOL    HW2 1371   2.661   1.176   1.989  0.3870  0.4497 -2.0429
  458SOL     OW 1372   2.081   0.442   2.467  0.4757  0.2775  0.2861
  458SOL    HW1 1373   2.142   0.511   2.421  1.4768  0.7010  0.9528
  458SOL    HW2 1374   2.136   0.379   2.523  1.5857 -1.2436 -0.6162
  459SOL     OW 1375   2.430   1.956   2.508 -0.8908 -0.0295 -0.3465
  459SOL    HW1 1376   2.382   1.924   2.425 -0.2508  0.6845  0.7703
  459SOL    HW2 1377   2.522   1.988   2.486  0.1267 -1.1241 -1.6846
  460SOL     OW 1378   1.018   1.875   2.628 -0.0886 -0.4517 -0.1305
  460SOL    HW1 1379   0.929   1.821   2.629  2.8461 -0.8531 -0.6893
  460SOL    HW2 1380   1.047   1.888   2.722 -0.0470  1.3722  4.9531
  461SOL     OW 1381   2.909   2.000   0.363 -0.4980  0.2187  0.0527
  461SOL    HW1 1382   2.868   1.912   0.334 -1.3114  1.2876 -2.8864
  461SOL    HW2 1383   3.009   1.993   0.386 -3.0497  0.2300 -0.0084
  462SOL     OW 1384   1.118   1.681   1.990 -0.0695  0.4320  0.0266
  462SOL    HW1 1385   1.158   1.742   1.919  0.4825  1.1960  0.0228
  462SOL    HW2 1386   1.122   1.587   1.955 -1.5325  0.5504  0.5874
  463SOL     OW 1387   1.255   1.744   2.218 -0.4400  0.4797  0.8430
  463SOL    HW1 1388   1.202   1.702   2.143  1.6504  0.0397  0.8255
  463SOL    HW2 1389   1.344   1.691   2.236 -0.2655 -3.7330 -0.7011
  464SOL     OW 1390   0.265   2.277   1.439 -0.6162 -0.1480  0.5348
  464SOL    HW1 1391   0.265   2.259   1.540 -2.0486 -2.7695 -1.0505
  464SOL    HW2 1392   0.347   2.226   1.398  0.5136  0.9133 -0.7755
  465SOL     OW 1393   2.603   0.595   0.774  0.3006 -0.7595  0.2125
  465SOL    HW1 1394   2.622   0.511   0.830  1.4066 -0.7187 -0.3277
  465SOL    HW2 1395   2.611   0.678   0.831  3.1909 -1.9218 -1.7761
  466SOL     OW 1396   1.924   2.393   0.802 -0.2412 -0.5554  0.0119
  466SOL    HW1 1397   1.997   2.336   0.844 -0.0632 -1.8743 -0.3419
  466SOL    HW2 1398   1.831   2.352   0.803  0.5700 -0.1209  0.4893
  467SOL     OW 1399   2.054   0.430   0.231  0.4858 -0.1886 -0.0961
  467SOL    HW1 1400   2.080   0.429   0.330 -0.2334 -0.9084  0.7810
  467SOL    HW2 1401   2.132   0.408   0.171 -1.6652 -0.8366  0.0761
  468SOL     OW 1402   1.726   2.154   3.062 -0.0219  0.3725 -0.1167
  468SOL    HW1 1403   1.737   2.152   2.962  0.3702 -0.8703  1.3706
  468SOL    HW2 1404   1.743   2.252   3.096  0.5029  0.9856  1.1121
  469SOL     OW 1405   2.635   1.842   3.013  0.0745 -0.0600  0.7260
  469SOL    HW1 1406   2.616   1.873   2.918  0.1788  2.3843  1.6093
  469SOL    HW2 1407   2.724   1.795   3.017 -0.8855 -1.5567 -1.4893
  470SOL     OW 1408   1.146   0.397   0.367  0.2661  0.2002  1.0594
  470SOL    HW1 1409   1.220   0.467   0.386 -0.5893  1.5394 -1.4044
  470SOL    HW2 1410   1.086   0.421   0.286 -0.9571  1.1194  0.5277
  471SOL     OW 1411   0.634   1.672   0.795 -0.5684  0.9787 -0.3210
  471SOL    HW1 1412   0.573   1.598   0.756 -2.3973 -1.3946  0.0819
  471SOL    HW2 1413   0.715   1.624   0.838  2.7042  1.2673  0.3237
  472SOL     OW 1414   2.703   2.184   2.728  0.0123 -0.3009  0.3925
  472SOL    HW1 1415   2.741   2.152   2.817 -0.6576 -3.7330 -1.8818
  472SOL    HW2 1416   2.634   2.258   2.751  0.6499  2.6003 -3.7739
  473SOL     OW 1417   1.653   2.211   0.861  0.0045 -0.7049  0.4729
  473SOL    HW1 1418   1.552   2.219   0.883 -1.5654  4.3611 -0.2479
  473SOL    HW2 1419   1.702   2.156   0.931  1.4985 -1.4260 -0.7474
  474SOL     OW 1420   0.659   0.827   0.853 -0.0951 -0.2181  0.1886
  474SOL    HW1 1421   0.587   0.871   0.798  0.1496  2.7921 -1.2805
  474SOL    HW2 1422   0.677   0.735   0.813  1.2688  2.5184 -1.3798
  475SOL     OW 1423   0.074   2.853   1.112  0.3059  0.3889  0.3648
  475SOL    HW1 1424   0.017   2.929   1.147  0.5116 -2.7385 -1.8818
  475SOL    HW2 1425   0.169   2.885   1.105 -2.6544 -1.0665  2.6744
  476SOL     OW 1426   0.235   0.078   1.003  0.3024 -0.1571 -0.3925
  476SOL    HW1 1427   0.282  -0.004   1.046  1.0883  0.5961 -1.2022
  476SOL    HW2 1428   0.211   0.059   0.903  0.1911  2.8001  0.9407
  477SOL     OW 1429   2.182   2.359   1.157 -0.3523  0.2127  0.0356
  477SOL    HW1 1430   2.233   2.269   1.147  0.2003 -1.4495 -2.3841
  477SOL    HW2 1431   2.213   2.432   1.091  1.8362  0.0462  1.2858
  478SOL     OW 1432   1.252   0.634   3.051 -0.3803 -0.4928  0.0698
  478SOL    HW1 1433   1.299   0.708   2.999 -0.4211 -1.5842  1.4536
  478SOL    HW2 1434   1.267   0.547   3.005  3.3948 -2.7149 -2.1451
  479SOL     OW 1435   2.736   1.128   1.359 -0.1022 -0.5523 -0.4345
  479SOL    HW1 1436   2.654   1.071   1.388 -1.6635 -0.9595  2.8908
  479SOL    HW2 1437   2.754   1.202   1.428  0.7061  0.2342 -1.1121
  480SOL     OW 1438   1.487   1.703   2.593  0.2621 -0.4219 -0.1368
  480SOL    HW1 1439   1.411   1.729   2.530  2.2458  1.1058 -1.5099
  480SOL    HW2 1440   1.510   1.608   2.566 -2.1507  0.5917 -1.6061
  481SOL     OW 1441   2.104   2.488   1.373  0.4273  0.1695 -0.2978
  481SOL    HW1 1442   2.132   2.452   1.279  1.2715  0.1848  0.8108
  481SOL    HW2 1443   2.021   2.548   1.365 -0.9381 -0.8366  0.2587
  482SOL     OW 1444   1.743   2.778   2.567 -0.0666  0.1870  0.2449
  482SOL    HW1 1445   1.761   2.844   2.643  2.3187 -0.7039  2.6744
  482SOL    HW2 1446   1.722   2.687   2.604 -0.2947  0.0458  0.2382
  483SOL     OW 1447   0.511   3.000   2.370  0.1119 -0.2947 -0.6092
  483SOL    HW1 1448   0.473   3.095   2.387  2.7300  0.7800  0.6785
  483SOL    HW2 1449   0.465   2.921   2.406  0.2572 -0.4477  1.0961
  484SOL     OW 1450   2.068   0.038   1.143  0.0411 -0.1399  0.4276
  484SOL    HW1 1451   2.150   0.057   1.088 -2.7792  0.2960 -0.8477
  484SOL    HW2 1452   1.991   0.028   1.080  1.6466  0.2636 -0.8815
  485SOL     OW 1453   2.222   0.163   0.722 -0.4424  0.2372  0.4197
  485SOL    HW1 1454   2.177   0.227   0.781  1.7560  0.0768 -1.8463
  485SOL    HW2 1455   2.153   0.126   0.657  0.8089  2.1926  1.8719
  486SOL     OW 1456   1.863   0.186   2.733 -0.3647 -0.1917  0.1484
  486SOL    HW1 1457   1.929   0.109   2.738  0.9774  0.1435  1.5385
  486SOL    HW2 1458   1.774   0.160   2.690  1.8492  0.0785  1.1694
  487SOL     OW 1459   1.512   0.624   0.848 -0.1284  0.0549  0.1683
  487SOL    HW1 1460   1.558   0.662   0.931  0.7583 -0.0717  1.3685
  487SOL    HW2 1461   1.457   0.545   0.873  0.5506  1.0873 -1.2237
  488SOL     OW 1462   1.832   2.527   1.976 -0.1250  0.6121  0.2968
  488SOL    HW1 1463   1.787   2.604   2.030  0.9024 -0.6127 -0.4899
  488SOL    HW2 1464   1.876   2.460   2.046 -0.7668  0.0080 -0.3558
  489SOL     OW 1465   1.826   2.749   0.305  0.0482 -0.5624  0.6778
  489SOL    HW1 1466   1.754   2.709   0.367 -0.5152 -1.7452 -0.1539
  489SOL    HW2 1467   1.785   2.823   0.250 -0.5868  0.4656  2.4038
  490SOL     OW 1468   1.002   0.669   0.425  0.0294 -0.0380  0.2123
  490SOL    HW1 1469   1.012   0.676   0.524 -0.2880  0.2381 -0.1296
  490SOL    HW2 1470   1.084   0.701   0.373 -0.0160  0.8303 -1.6520
  491SOL     OW 1471   0.943   2.499   0.842  0.1484 -0.0817 -0.6821
  491SOL    HW1 1472   0.928   2.420   0.780  0.5360  2.0863  0.6640
  491SOL    HW2 1473   1.026   2.554   0.817 -0.7565  0.3772  0.9315
  492SOL     OW 1474   1.722   2.738   2.135 -0.3366  0.4347 -0.3449
  492SOL    HW1 1475   1.678   2.736   2.224 -2.0110 -2.6453  0.2614
  492SOL    HW2 1476   1.770   2.827   2.115 -2.8583  0.4651 -0.4139
  493SOL     OW 1477   1.739   2.015   0.203  0.1672 -0.0978 -0.0746
  493SOL    HW1 1478   1.767   2.089   0.270  1.9720 -1.2413  1.3759
  493SOL    HW2 1479   1.734   2.058   0.108  3.2158 -2.4023 -1.0160
  494SOL     OW 1480   1.906   0.790   0.968 -0.1880 -0.2171 -0.2494
  494SOL    HW1 1481   1.978   0.810   1.040  1.3352  0.9979 -0.9419
  494SOL    HW2 1482   1.904   0.861   0.892  0.2192 -0.4288 -0.8032
  495SOL     OW 1483   0.737   1.102   1.421  0.2611  0.7722 -0.0194
  495SOL    HW1 1484   0.769   1.194   1.390  0.5090  0.7691  0.9146
  495SOL    HW2 1485   0.814   1.031   1.406 -0.4883 -1.4659 -1.2339
  496SOL     OW 1486   1.911   1.614   2.599  0.4416 -0.5788  0.1157
  496SOL    HW1 1487   1.978   1.559   2.542 -3.4341  0.2046  0.1030
  496SOL    HW2 1488   1.864   1.693   2.551  2.9830 -3.1662  0.5778
  497SOL     OW 1489   1.755   1.417   2.733 -0.0664  0.0590 -0.3443
  497SOL    HW1 1490   1.797   1.336   2.689 -1.4604 -0.8445  1.3584
  497SOL    HW2 1491   1.798   1.507   2.708 -1.9605 -0.1465 -1.3533
  498SOL     OW 1492   0.591   2.167   0.138 -0.4351  0.3730  1.0123
  498SOL    HW1 1493   0.664   2.096   0.118  1.7770  0.0991  1.5369
  498SOL    HW2 1494   0.601   2.189   0.236  0.2197  0.8309 -3.5567
  499SOL     OW 1495   0.211   2.131   0.168 -0.3335  0.1499 -0.0336
  499SOL    HW1 1496   0.122   2.173   0.130 -1.9840 -0.1302  2.1158
  499SOL    HW2 1497   0.283   2.122   0.098  0.4468  0.9553  1.8459
  500SOL     OW 1498   2.424   0.498   2.527  0.4006 -0.1259 -0.0234
  500SOL    HW1 1499   2.367   0.526   2.448  1.3534 -1.9961  0.6089
  500SOL    HW2 1500   2.519   0.489   2.495  1.1153 -1.6191 -0.4443
  501SOL     OW 1501   1.628   2.942   1.769 -0.0967  0.4376  0.4137
  501SOL    HW1 1502   1.543   2.979   1.730 -0.7673 -1.9506  0.4458
  501SOL    HW2 1503   1.707   2.979   1.717 -1.6769  0.6560 -3.9190
  502SOL     OW 1504   2.426   2.823   0.710  0.1664  0.5453 -0.0879
  502SOL    HW1 1505   2.465   2.731   0.738 -0.6348  0.9173 -4.7328
  502SOL    HW2 1506   2.460   2.852   0.619  1.6862 -0.5851 -1.8052
  503SOL     OW 1507   1.018   2.976   1.739 -0.3951 -0.2638  0.6523
  503SOL    HW1 1508   1.070   3.041   1.673  0.8694 -1.5086 -0.4762
  503SOL    HW2 1509   1.081   2.942   1.811  1.9373 -0.5615 -0.9474
  504SOL     OW 1510   2.526   0.860   1.666  0.2011 -0.2276 -0.2241
  504SOL    HW1 1511   2.461   0.786   1.643  0.5854 -2.0495 -0.2364
  504SOL    HW2 1512   2.556   0.851   1.764 -1.5487  0.1758  0.2137
  505SOL     OW 1513   1.125   2.839   2.384  0.1445  0.3178  0.4358
  505SOL    HW1 1514   1.054   2.847   2.452 -0.3331 -1.5995 -0.2501
  505SOL    HW2 1515   1.203   2.776   2.408 -1.9219  0.9064 -0.0248
  506SOL     OW 1516   0.059   0.482   0.236 -0.2455 -0.1936 -0.3325
  506SOL    HW1 1517  -0.009   0.560   0.242 -0.8115 -3.2977 -0.7771
  506SOL    HW2 1518   0.070   0.459   0.137  0.9434  2.1659  0.8701
  507SOL     OW 1519   2.134   0.563   0.823  0.3081  0.1618 -0.3757
  507SOL    HW1 1520   2.049   0.614   0.795  5.9054 -0.5700 -0.4902
  507SOL    HW2 1521   2.198   0.567   0.742  0.4218 -0.3105  2.6845
  508SOL     OW 1522   2.695   0.723   2.282  0.4560  0.0113 -0.4955
  508SOL    HW1 1523   2.730   0.810   2.320 -0.6936  0.5749 -1.6971
  508SOL    HW2 1524   2.711   0.714   2.182 -1.9993 -2.5320 -1.2448
  509SOL     OW 1525   0.053   1.663   2.452  0.3064 -0.1855  0.2744
  509SOL    HW1 1526   0.082   1.576   2.415 -1.7697 -1.5044 -0.3827
  509SOL    HW2 1527   0.050   1.734   2.377 -0.7700  1.3806  1.3211
  510SOL     OW 1528   0.106   0.839   0.845 -0.3714  0.0679 -0.1936
  510SOL    HW1 1529   0.153   0.809   0.929  1.6755 -1.9500 -0.3188
  510SOL    HW2 1530   0.114   0.939   0.841 -0.1156 -2.9231 -2.4048
  511SOL     OW 1531   2.030   1.374   0.591  0.0036  0.7604  0.0810
  511SOL    HW1 1532   1.970   1.431   0.647 -1.7113  0.0448  1.1507
  511SOL    HW2 1533   2.063   1.298   0.654  1.5502  2.6948  0.3698
  512SOL     OW 1534   1.074   2.368   2.883 -0.1322  0.3263 -0.2641
  512SOL    HW1 1535   1.001   2.308   2.929 -0.3668 -0.2402  0.2514
  512SOL    HW2 1536   1.135   2.304   2.835 -3.3857  2.3642 -1.0133
  513SOL     OW 1537   2.821   1.748   0.268  0.6318 -0.2204  0.0481
  513SOL    HW1 1538   2.895   1.720   0.203 -0.8071 -0.8177 -0.5715
  513SOL    HW2 1539   2.731   1.732   0.222 -0.5821 -0.7117  0.4832
  514SOL     OW 1540   0.065   1.926   2.815 -0.6797 -0.6221 -0.3497
  514SOL    HW1 1541   0.137   1.877   2.763  1.9892  1.3222  2.5056
  514SOL    HW2 1542   0.071   1.907   2.916  1.6880 -0.5955 -0.2550
  515SOL     OW 1543   2.811   2.943   0.143 -0.2081 -0.3785 -0.2281
  515SOL    HW1 1544   2.829   2.843   0.165 -0.6553 -1.5051  1.3465
  515SOL    HW2 1545   2.877   2.968   0.070  0.9093 -0.8269  0.8533
  516SOL     OW 1546   2.142   0.055   0.248 -0.3322  0.1930 -0.2406
  516SOL    HW1 1547   2.127   0.105   0.163  2.4865  0.7620  2.3308
  516SOL    HW2 1548   2.158  -0.041   0.222  1.1906  0.8353 -0.1213
  517SOL     OW 1549   1.356   0.808   1.434  0.1710  0.2397  0.1343
  517SOL    HW1 1550   1.442   0.767   1.473 -0.0122 -0.4281 -0.2367
  517SOL    HW2 1551   1.374   0.909   1.422 -4.2281  0.2992 -0.6843
  518SOL     OW 1552   1.259   2.930   0.491 -0.2070 -0.6747 -0.5564
  518SOL    HW1 1553   1.198   2.846   0.518 -1.5291  2.2027  0.5428
  518SOL    HW2 1554   1.214   3.022   0.487  0.5272  1.2510 -1.3947
  519SOL     OW 1555   2.667   2.355   0.066 -0.3253  0.2051 -0.4659
  519SOL    HW1 1556   2.673   2.256   0.052 -0.5407 -2.9177 -1.1577
  519SOL    HW2 1557   2.711   2.387   0.150 -1.4291 -0.5794  0.8474
  520SOL     OW 1558   1.524   1.288   0.162 -0.0518 -0.3651  0.1019
  520SOL    HW1 1559   1.586   1.221   0.123  0.4820  2.2135 -0.2168
  520SOL    HW2 1560   1.465   1.329   0.087  0.8354 -0.0790  1.6358
  521SOL     OW 1561   1.622   0.172   1.448 -0.3835 -0.6216 -0.7692
  521SOL    HW1 1562   1.642   0.234   1.526 -1.9244 -1.0143  0.1489
  521SOL    HW2 1563   1.703   0.122   1.414 -0.7066 -0.5304 -1.9711
  522SOL     OW 1564   1.342   2.658   2.415 -0.5073  0.0751 -0.5595
  522SOL    HW1 1565   1.339   2.639   2.514 -1.0547 -0.0368  2.6419
  522SOL    HW2 1566   1.428   2.710   2.393  1.2308  0.0991  3.0610
  523SOL     OW 1567   0.129   2.843   2.213 -0.1079 -0.4124 -0.5968
  523SOL    HW1 1568   0.145   2.877   2.309  3.1381  1.5087  1.4291
  523SOL    HW2 1569   0.204   2.866   2.145  0.1508  1.5577 -3.4733
  524SOL     OW 1570   2.811   1.982   0.666  1.1220  0.2089 -0.4914
  524SOL    HW1 1571   2.775   1.887   0.658  0.4817 -1.1223 -3.4954
  524SOL    HW2 1572   2.912   1.979   0.654 -2.0542  0.3019 -0.5549
  525SOL     OW 1573   2.537   0.080   2.214 -0.3263 -0.2976  0.3383
  525SOL    HW1 1574   2.545   0.161   2.153  3.2138 -3.2051 -2.5322
  525SOL    HW2 1575   2.441   0.077   2.253  0.8581 -0.4409 -1.2684
  526SOL     OW 1576   0.476   2.428   0.116 -0.8179 -0.4198 -0.3898
  526SOL    HW1 1577   0.419   2.439   0.197  0.2559 -2.3652  4.5202
  526SOL    HW2 1578   0.498   2.334   0.113  0.7649 -0.4417  0.1021
  527SOL     OW 1579   2.418   0.270   0.575  0.1857 -0.2772  0.4994
  527SOL    HW1 1580   2.353   0.227   0.644 -0.8581  3.0565 -0.6180
  527SOL    HW2 1581   2.397   0.237   0.479  0.6044 -1.9891  0.0195
  528SOL     OW 1582   0.732   1.098   3.042 -0.4649  0.1377 -0.2691
  528SOL    HW1 1583   0.713   1.058   3.136 -0.3986  1.8950 -1.7352
  528SOL    HW2 1584   0.693   1.042   2.965 -1.5627  1.2649  2.2045
  529SOL     OW 1585   1.015   0.901   0.898  0.5436  0.4526 -0.3079
  529SOL    HW1 1586   1.064   0.932   0.983 -1.2835  1.1588 -3.0679
  529SOL    HW2 1587   0.980   0.988   0.848 -0.6192  1.3547 -3.1415
  530SOL     OW 1588   0.770   0.613   2.169 -0.3823 -0.5722  0.2817
  530SOL    HW1 1589   0.689   0.594   2.232  0.8671 -0.0155  1.4346
  530SOL    HW2 1590   0.795   0.717   2.172  1.2358 -0.7459  1.4291
  531SOL     OW 1591   1.418   2.315   1.800  0.2457  0.1359  0.4084
  531SOL    HW1 1592   1.379   2.406   1.835 -0.2112 -1.8380 -1.6578
  531SOL    HW2 1593   1.435   2.318   1.699 -1.5379  1.2336  3.9310
  532SOL     OW 1594   0.075   2.547   1.960  0.1451  0.1161  0.0596
  532SOL    HW1 1595   0.074   2.450   1.926 -3.4806  0.6991  0.4872
  532SOL    HW2 1596  -0.026   2.568   1.978 -2.3676  1.5452 -0.5318
  533SOL     OW 1597   2.990   0.556   2.274  0.3134 -0.1204  0.0215
  533SOL    HW1 1598   2.944   0.468   2.257 -1.1519  1.1293  0.3870
  533SOL    HW2 1599   3.004   0.608   2.190  1.7583 -1.8214 -1.8957
  534SOL     OW 1600   2.188   2.667   2.018 -0.2487  0.1759 -0.5306
  534SOL    HW1 1601   2.173   2.631   1.920  2.3522  0.8523  0.7878
  534SOL    HW2 1602   2.287   2.651   2.044 -0.1683 -0.4331  1.3851
  535SOL     OW 1603   0.666   0.998   1.653  0.4076 -0.1424 -0.1860
  535SOL    HW1 1604   0.573   0.959   1.651 -1.9249 -0.7389  1.5086
  535SOL    HW2 1605   0.694   1.053   1.572 -0.5216 -2.4942  1.0224
  536SOL     OW 1606   1.229   1.838   1.811  0.1715  0.0748  0.8238
  536SOL    HW1 1607   1.263   1.925   1.854 -0.0788  1.4652  0.7233
  536SOL    HW2 1608   1.181   1.857   1.726  0.3548  2.2809  0.4052
  537SOL     OW 1609   2.977   2.332   0.379  0.6163  0.3146  0.3560
  537SOL    HW1 1610   2.989   2.351   0.474  1.0163 -0.1898  1.6598
  537SOL    HW2 1611   3.058   2.372   0.331 -0.3658 -1.7408 -0.0127
  538SOL     OW 1612   0.064   2.760   0.430 -0.6129  0.5839  0.0054
  538SOL    HW1 1613  -0.013   2.799   0.482 -3.1639 -1.4399 -0.2944
  538SOL    HW2 1614   0.154   2.771   0.479 -1.1679 -1.7346  0.8983
  539SOL     OW 1615   2.613   1.320   0.327  0.0739  0.5719 -0.1437
  539SOL    HW1 1616   2.671   1.338   0.406 -0.2821  0.1556 -0.5940
  539SOL    HW2 1617   2.648   1.366   0.243 -0.0262  2.7031  0.0967
  540SOL     OW 1618   2.086   0.401   0.506 -0.5174  0.4079 -0.7692
  540SOL    HW1 1619   2.047   0.491   0.537  1.1041  2.6756 -1.1374
  540SOL    HW2 1620   2.090   0.326   0.578  0.3000 -0.9244  0.2294
  541SOL     OW 1621   1.387   1.819   0.039 -0.4994  0.0417  0.7800
  541SOL    HW1 1622   1.425   1.873  -0.041 -1.3556  0.5125 -1.2944
  541SOL    HW2 1623   1.441   1.733   0.053  1.2793  0.0513 -1.4916
  542SOL     OW 1624   0.930   1.174   1.957 -0.1643  0.0190 -0.3525
  542SOL    HW1 1625   0.949   1.075   1.934 -0.6155  2.5837 -0.8215
  542SOL    HW2 1626   0.841   1.195   1.909 -1.0469 -0.4113 -0.3114
  543SOL     OW 1627   2.818   2.122   0.146 -0.1802  0.1867 -0.0583
  543SOL    HW1 1628   2.859   2.094   0.232  1.0400 -0.6661  2.1105
  543SOL    HW2 1629   2.727   2.074   0.138  2.9159 -1.7350 -0.2310
  544SOL     OW 1630   0.592   2.424   1.380  0.4480  0.1699 -0.2452
  544SOL    HW1 1631   0.550   2.520   1.385  1.7421 -0.7505  4.3002
  544SOL    HW2 1632   0.633   2.395   1.467  0.7948  2.5929  1.3331
  545SOL     OW 1633   2.791   1.788   1.575  0.1686 -0.1471 -0.7306
  545SOL    HW1 1634   2.770   1.886   1.587  1.2769  4.4291 -1.6880
  545SOL    HW2 1635   2.781   1.763   1.477  0.1967 -0.7666  0.4733
  546SOL     OW 1636   0.763   0.343   2.752  0.0418  0.1148  0.3538
  546SOL    HW1 1637   0.844   0.385   2.706 -1.2033  0.0722 -0.5029
  546SOL    HW2 1638   0.718   0.265   2.703 -2.1453  1.5726 -1.5443
  547SOL     OW 1639   1.294   0.106   0.062  0.0571  0.1462 -0.1419
  547SOL    HW1 1640   1.295   0.013   0.101  1.7137 -1.0245  1.6016
  547SOL    HW2 1641   1.358   0.164   0.113  0.8261 -3.0442  0.4544
  548SOL     OW 1642   0.619   2.280   2.498  0.2283  0.2040  0.1058
  548SOL    HW1 1643   0.566   2.192   2.491 -1.5748 -1.1493  0.1974
  548SOL    HW2 1644   0.710   2.266   2.537  0.7255  0.2435  3.9858
  549SOL     OW 1645   1.659   0.743   0.141  0.5118  0.3910  0.5970
  549SOL    HW1 1646   1.618   0.682   0.071  2.4219  1.3059  1.1025
  549SOL    HW2 1647   1.749   0.704   0.160 -0.6721  0.9637 -0.1895
  550SOL     OW 1648   2.550   2.084   1.206 -0.0056 -0.2038  0.3415
  550SOL    HW1 1649   2.566   1.985   1.189 -1.2758  0.7585 -0.4287
  550SOL    HW2 1650   2.528   2.098   1.308  1.0271 -1.8162  2.5504
  551SOL     OW 1651   1.502   2.622   1.151 -0.2846  0.0262  0.2001
  551SOL    HW1 1652   1.531   2.545   1.215  0.9249  2.1671  1.2049
  551SOL    HW2 1653   1.552   2.610   1.064 -0.2109  1.4526 -0.5539
  552SOL     OW 1654   0.398   0.353   0.424  0.8827 -0.3154  0.4248
  552SOL    HW1 1655   0.381   0.298   0.340  1.3296  0.4043 -0.2600
  552SOL    HW2 1656   0.359   0.306   0.509  1.1445  1.1061 -0.6771
  553SOL     OW 1657   2.404   2.767   3.090  0.0190 -0.3213 -0.4304
  553SOL    HW1 1658   2.420   2.673   3.133  0.3937  0.4950 -0.6293
  553SOL    HW2 1659   2.415   2.766   2.990  2.2265  1.5655 -2.4032
  554SOL     OW 1660   2.177   1.204   2.463  0.0135 -0.5722  0.5168
  554SOL    HW1 1661   2.149   1.228   2.560  0.7317  2.2911  0.4057
  554SOL    HW2 1662   2.236   1.274   2.417  1.3289 -0.7759  1.2535
  555SOL     OW 1663   0.684   1.776   2.314  0.2357  0.6998 -0.0853
  555SOL    HW1 1664   0.753   1.851   2.287 -1.0047 -0.9087 -1.5514
  555SOL    HW2 1665   0.591   1.810   2.297 -0.5906  1.2060  3.6227
  556SOL     OW 1666   1.625   1.224   1.179  0.0753  0.2802  0.3443
  556SOL    HW1 1667   1.663   1.155   1.117  1.6015  1.3339 -1.6147
  556SOL    HW2 1668   1.695   1.256   1.248  0.8340  1.5148  2.3693
  557SOL     OW 1669   1.414   0.161   1.260  0.1058 -0.4119  0.2032
  557SOL    HW1 1670   1.354   0.081   1.280 -1.3209  1.2490  1.9193
  557SOL    HW2 1671   1.499   0.152   1.317  0.3042 -1.1904 -0.8980
  558SOL     OW 1672   0.713   1.410   2.800  0.0525  0.2929  0.4674
  558SOL    HW1 1673   0.804   1.459   2.808 -1.6564  1.3267  3.6428
  558SOL    HW2 1674   0.671   1.392   2.892  1.3689 -0.8870 -1.1627
  559SOL     OW 1675   2.865   1.698   2.974 -0.6325  0.0272  0.0846
  559SOL    HW1 1676   2.894   1.718   2.879 -1.8825 -0.5991  0.5626
  559SOL    HW2 1677   2.946   1.697   3.037 -1.6698 -1.2569  0.1343
  560SOL     OW 1678   2.185   1.924   1.217 -0.2697 -0.6272 -0.5433
  560SOL    HW1 1679   2.222   1.927   1.313 -2.3003 -1.5722 -0.6686
  560SOL    HW2 1680   2.085   1.909   1.205 -3.0935  2.4131 -2.0290
  561SOL     OW 1681   0.948   0.655   1.010  0.4437 -0.8071  0.0121
  561SOL    HW1 1682   0.924   0.591   0.936 -2.8426  0.7688 -1.2927
  561SOL    HW2 1683   0.961   0.749   0.973 -0.6020  0.3662 -2.5383
  562SOL     OW 1684   2.631   0.723   2.778  0.1852 -0.3411 -0.2521
  562SOL    HW1 1685   2.689   0.645   2.736 -1.0559 -0.3810 -0.3757
  562SOL    HW2 1686   2.692   0.776   2.840  0.1879 -1.4162  1.7074
  563SOL     OW 1687   0.415   2.710   2.197  0.4719 -0.3017 -0.0561
  563SOL    HW1 1688   0.398   2.725   2.297 -1.2589  0.8470  0.5755
  563SOL    HW2 1689   0.384   2.612   2.176 -1.3877 -0.9173  2.3237
  564SOL     OW 1690   1.888   2.470   2.386 -0.2926  0.2176 -0.0697
  564SOL    HW1 1691   1.891   2.391   2.325 -0.1255 -1.9026 -0.4727
  564SOL    HW2 1692   1.803   2.473   2.450  0.7263 -1.6577 -0.8755
  565SOL     OW 1693   0.921   1.365   0.323 -0.8387  0.3351 -0.2047
  565SOL    HW1 1694   0.982   1.444   0.353  0.2304  1.5491  1.5315
  565SOL    HW2 1695   0.967   1.278   0.339  0.1173  1.7253 -1.1016
  566SOL     OW 1696   1.937   0.257   2.323 -0.5197 -0.2070  0.2491
  566SOL    HW1 1697   1.988   0.323   2.387 -0.8906 -0.9104  2.0115
  566SOL    HW2 1698   1.998   0.218   2.249  0.1886 -0.2006 -1.9118
  567SOL     OW 1699   1.934   0.510   2.995 -0.7456 -0.6644  0.2364
  567SOL    HW1 1700   1.951   0.496   2.897  0.9877 -0.0140  2.1962
  567SOL    HW2 1701   2.001   0.580   3.031 -2.1855  2.0467  0.3830
  568SOL     OW 1702   1.412   1.732   0.473  0.3862 -0.1433 -0.0284
  568SOL    HW1 1703   1.444   1.801   0.405 -0.2713 -0.4083 -2.2646
  568SOL    HW2 1704   1.488   1.663   0.486  1.3509 -0.3638 -1.3056
  569SOL     OW 1705   2.462   1.593   0.867  0.2660 -0.0758 -0.0507
  569SOL    HW1 1706   2.479   1.515   0.799 -1.2216  0.2574 -0.9200
  569SOL    HW2 1707   2.548   1.646   0.881 -0.0766  1.4637 -3.2225
  570SOL     OW 1708   2.105   2.411   2.620  0.3603  0.1776 -0.2145
  570SOL    HW1 1709   2.102   2.474   2.542 -0.6039  3.3938  0.7062
  570SOL    HW2 1710   2.180   2.342   2.615  1.5166 -1.2875 -0.2690
  571SOL     OW 1711   0.267   1.630   0.621  0.2423  0.1377  0.2392
  571SOL    HW1 1712   0.339   1.572   0.657  1.4109 -0.5610 -1.2113
  571SOL    HW2 1713   0.299   1.724   0.641 -0.3391 -0.4944  0.3264
  572SOL     OW 1714   1.535   1.582   0.078  0.2999 -0.6420  0.5977
  572SOL    HW1 1715   1.462   1.521   0.043 -1.3765 -0.5698  2.6409
  572SOL    HW2 1716   1.611   1.582   0.007  0.7542  0.2359  1.3886
  573SOL     OW 1717   1.411   2.108   0.475  0.4724 -0.1888  0.9925
  573SOL    HW1 1718   1.412   2.051   0.389  2.0718 -0.1324  0.5020
  573SOL    HW2 1719   1.494   2.092   0.534  0.4942  0.6481  0.7744
  574SOL     OW 1720   0.834   0.088   1.760  0.4595 -0.1308 -0.0709
  574SOL    HW1 1721   0.901   0.013   1.768 -0.7970  0.2874  1.8526
  574SOL    HW2 1722   0.886   0.163   1.716  0.1489  0.2557 -2.7753
  575SOL     OW 1723   1.073   1.380   0.904  0.3618  0.1812  0.3401
  575SOL    HW1 1724   1.019   1.315   0.962  0.9779  1.3387 -0.2919
  575SOL    HW2 1725   1.158   1.416   0.948  0.8164  0.8434 -2.3484
  576SOL     OW 1726   1.960   0.360   1.969  0.0670  0.1093 -0.4793
  576SOL    HW1 1727   1.888   0.361   2.044 -0.5246 -0.3278  0.7249
  576SOL    HW2 1728   2.050   0.316   1.990  3.0513  0.7645  0.5035
  577SOL     OW 1729   0.130   0.463   3.069  0.1889  0.0674  0.4806
  577SOL    HW1 1730   0.194   0.523   3.012 -1.0290 -3.9969  0.7933
  577SOL    HW2 1731   0.166   0.368   3.084 -1.5800 -0.4023  1.3643
  578SOL     OW 1732   2.399   0.241   1.656  0.0478  0.5002 -0.1382
  578SOL    HW1 1733   2.300   0.227   1.636 -1.9668  0.6922 -0.5547
  578SOL    HW2 1734   2.440   0.152   1.692  3.5761 -1.6064 -2.6584
  579SOL     OW 1735   1.349   2.187   1.340 -0.2756 -0.9490 -0.0620
  579SOL    HW1 1736   1.260   2.152   1.366  0.2655  1.2385 -0.3702
  579SOL    HW2 1737   1.339   2.264   1.274  0.2194  2.1242  0.7894
  580SOL     OW 1738   1.100   2.436   0.509  0.4290  0.2548  0.4080
  580SOL    HW1 1739   1.086   2.416   0.413 -0.8909 -2.1226  0.0139
  580SOL    HW2 1740   1.091   2.538   0.519 -2.5742 -0.9118  0.4599
  581SOL     OW 1741   1.209   0.927   1.830 -0.0310  0.7642  0.0253
  581SOL    HW1 1742   1.126   0.910   1.882 -3.1163  1.6106 -1.4586
  581SOL    HW2 1743   1.281   0.853   1.844  0.4359  2.0318 -2.2188
  582SOL     OW 1744   0.541   3.091   1.295  0.5694  0.4165  0.7796
  582SOL    HW1 1745   0.627   3.039   1.278 -0.8336  0.2758  0.1969
  582SOL    HW2 1746   0.542   3.171   1.229 -3.7658  1.3711 -1.5624
  583SOL     OW 1747   0.503   1.705   1.038  0.0296  0.1184  0.3990
  583SOL    HW1 1748   0.530   1.690   0.944 -2.5959 -0.7400 -0.0188
  583SOL    HW2 1749   0.554   1.789   1.058  1.3485  0.8331 -0.1056
  584SOL     OW 1750   2.582   2.708   0.412 -0.0348 -0.3922 -0.1288
  584SOL    HW1 1751   2.496   2.654   0.406 -0.4952  1.6405  0.0638
  584SOL    HW2 1752   2.560   2.809   0.417  0.7838  0.5034 -1.0721
  585SOL     OW 1753   2.479   2.895   2.181  0.2922 -0.6800 -0.1626
  585SOL    HW1 1754   2.500   2.810   2.236  1.2092 -0.7685 -0.6288
  585SOL    HW2 1755   2.494   2.977   2.236 -0.4241  1.4109  2.7345
  586SOL     OW 1756   2.987   1.071   0.448 -0.2427  0.5506  0.1955
  586SOL    HW1 1757   2.897   1.051   0.411 -0.8044  1.5087 -2.5652
  586SOL    HW2 1758   3.047   1.110   0.374 -0.0281  0.9501  1.8560
  587SOL     OW 1759   2.881   0.301   1.249  0.4729 -0.1337 -0.1015
  587SOL    HW1 1760   2.796   0.244   1.254  0.7978  1.6587 -4.2978
  587SOL    HW2 1761   2.948   0.259   1.182 -1.1475 -0.7987 -2.9787
  588SOL     OW 1762   2.334   0.740   0.489 -0.8397  0.2898 -0.2013
  588SOL    HW1 1763   2.330   0.658   0.548 -1.3552 -2.6572 -1.8386
  588SOL    HW2 1764   2.389   0.721   0.405 -1.8996 -0.2172  2.7518
  589SOL     OW 1765   2.387   2.324   0.692 -0.4741 -1.3264  0.4050
  589SOL    HW1 1766   2.399   2.263   0.773 -2.3524 -0.1625  1.1729
  589SOL    HW2 1767   2.306   2.386   0.697  3.1668  0.6449 -1.1768
  590SOL     OW 1768   2.753   1.033   0.912 -0.5267  0.6072  0.0617
  590SOL    HW1 1769   2.742   0.974   0.830 -0.8575 -3.0380 -0.8162
  590SOL    HW2 1770   2.677   1.100   0.920  3.8598 -1.4994  0.3170
  591SOL     OW 1771   0.155   2.305   2.303  0.1300 -0.1225  0.6022
  591SOL    HW1 1772   0.088   2.300   2.230  2.7565 -3.6478 -2.4636
  591SOL    HW2 1773   0.239   2.264   2.269 -0.3026 -0.5708  0.2956
  592SOL     OW 1774   1.529   1.996   1.311  0.2555  0.2622  0.3904
  592SOL    HW1 1775   1.611   2.049   1.343  2.1901  0.5494  0.3802
  592SOL    HW2 1776   1.450   2.060   1.306  0.0484 -0.1672 -0.2296
  593SOL     OW 1777   0.745   2.158   2.822  0.6311 -0.3327  0.3533
  593SOL    HW1 1778   0.789   2.217   2.892  1.8860  1.4667  2.8304
  593SOL    HW2 1779   0.790   2.180   2.729  2.6299  0.8714 -0.7499
  594SOL     OW 1780   0.077   1.114   2.562 -0.5905 -0.1730  0.2942
  594SOL    HW1 1781   0.097   1.191   2.629 -2.1483  1.1070  1.9821
  594SOL    HW2 1782   0.145   1.108   2.486 -2.5859  2.0590 -0.3592
  595SOL     OW 1783   0.741   0.193   0.439 -0.1714  0.3481  0.2746
  595SOL    HW1 1784   0.786   0.126   0.372  2.0712  2.3569  0.8282
  595SOL    HW2 1785   0.662   0.145   0.487 -2.4247  0.3781 -1.9696
  596SOL     OW 1786   3.004   1.059   1.055  0.0880  0.0829  0.3347
  596SOL    HW1 1787   3.040   1.026   1.143 -2.2833  0.8487 -1.6374
  596SOL    HW2 1788   2.916   1.021   1.023  0.3449  0.3303 -1.5807
  597SOL     OW 1789   0.104   1.086   0.245  0.5299  0.1559 -0.1886
  597SOL    HW1 1790   0.091   1.033   0.161 -0.5669  2.2245 -0.2031
  597SOL    HW2 1791   0.162   1.033   0.310 -0.2885  1.6143  2.7334
  598SOL     OW 1792   1.119   1.510   2.526  0.2579 -0.3324 -0.1413
  598SOL    HW1 1793   1.164   1.601   2.505  0.6364  0.8962  1.1959
  598SOL    HW2 1794   1.183   1.436   2.557 -0.0618  0.3583 -1.2042
  599SOL     OW 1795   0.006   2.596   1.212  0.2483 -0.5638  0.2633
  599SOL    HW1 1796   0.025   2.689   1.166  1.1000  3.2080  0.4503
  599SOL    HW2 1797   0.081   2.567   1.266  1.4139 -2.0855 -0.8337
  600SOL     OW 1798   0.653   1.329   0.637 -0.4581  0.2188 -0.6224
  600SOL    HW1 1799   0.697   1.369   0.722  0.4820 -0.0899 -3.3768
  600SOL    HW2 1800   0.686   1.235   0.614 -0.9344 -1.1045 -0.3280
  601SOL     OW 1801   1.814   1.060   2.983 -0.9217 -0.8037 -0.2597
  601SOL    HW1 1802   1.720   1.076   2.945  0.5867 -2.0774  1.0632
  601SOL    HW2 1803   1.862   0.986   2.932  2.8241  0.5115  1.4136
  602SOL     OW 1804   1.349   3.070   0.864  0.5252  0.0621  1.0534
  602SOL    HW1 1805   1.362   3.146   0.794  1.5482  3.2484  0.7559
  602SOL    HW2 1806   1.423   2.998   0.860  0.9577 -1.5599 -1.6176
  603SOL     OW 1807   0.132   0.050   2.919 -0.0359 -0.0061  0.9285
  603SOL    HW1 1808   0.036   0.035   2.948 -0.2209  1.2271  1.8431
  603SOL    HW2 1809   0.182   0.111   2.987 -0.4550 -3.0137  0.9209
  604SOL     OW 1810   0.709   0.607   2.585 -0.3168  0.1050 -0.2544
  604SOL    HW1 1811   0.805   0.585   2.622 -1.4062 -0.6252  2.3502
  604SOL    HW2 1812   0.696   0.710   2.579  0.0314 -1.3511  1.0942
  605SOL     OW 1813   2.437   2.766   1.383 -0.2589  0.2034  0.1104
  605SOL    HW1 1814   2.365   2.764   1.308 -0.9393 -0.8478  0.1567
  605SOL    HW2 1815   2.531   2.782   1.347  0.4960  1.2964  0.4317
  606SOL     OW 1816   0.225   1.775   2.021 -0.5604  0.2327 -0.3479
  606SOL    HW1 1817   0.259   1.743   2.113  1.1864 -0.1849 -1.4671
  606SOL    HW2 1818   0.177   1.867   2.024  0.2879 -1.8827  0.3289
  607SOL     OW 1819   0.791   2.792   0.702  0.2356 -0.1866 -0.5100
  607SOL    HW1 1820   0.787   2.739   0.618 -2.9712  2.9517  1.1429
  607SOL    HW2 1821   0.728   2.747   0.765 -1.0112  0.1061  1.7187
  608SOL     OW 1822   2.125   1.509   2.710 -0.7430 -0.2641  0.2685
  608SOL    HW1 1823   2.037   1.555   2.708  0.2348  3.1346  0.0325
  608SOL    HW2 1824   2.118   1.409   2.715  2.9787  0.4654 -2.0457
  609SOL     OW 1825   2.476   0.452   1.796  0.2303 -0.0910  0.1250
  609SOL    HW1 1826   2.435   0.370   1.747 -0.6382  0.9008 -2.5984
  609SOL    HW2 1827   2.403   0.523   1.816  0.5716 -0.6001  0.0752
  610SOL     OW 1828   1.030   2.584   2.739 -0.1343 -0.5813  0.3069
  610SOL    HW1 1829   1.048   2.499   2.797  1.3175 -1.3389  1.6536
  610SOL    HW2 1830   0.977   2.551   2.656 -1.8513  0.5169  0.8614
  611SOL     OW 1831   0.750   1.610   0.003  0.9542  0.1245 -0.4747
  611SOL    HW1 1832   0.701   1.666   0.075  1.5247  1.8132  2.6605
  611SOL    HW2 1833   0.703   1.517  -0.004 -0.7479 -0.1010 -1.8277
  612SOL     OW 1834   1.062   2.770   2.111 -0.4868 -0.4896 -0.8073
  612SOL    HW1 1835   0.969   2.806   2.080  1.3328  0.4525 -0.6170
  612SOL    HW2 1836   1.065   2.781   2.212  5.0010 -1.1111  1.0224
  613SOL     OW 1837   0.830   1.935   2.969  0.2503  0.0445  0.3955
  613SOL    HW1 1838   0.800   2.022   2.924 -1.9164 -0.4085  0.4212
  613SOL    HW2 1839   0.930   1.924   2.961  1.0827 -3.8931 -3.3000
  614SOL     OW 1840   2.228   2.247   1.883  0.1442  0.0405  0.4620
  614SOL    HW1 1841   2.300   2.182   1.862 -1.1484 -2.5138  0.2250
  614SOL    HW2 1842   2.219   2.255   1.984 -0.1866  3.3679  0.7709
  615SOL     OW 1843   0.983   1.628   3.007  0.4088  0.8506 -0.3358
  615SOL    HW1 1844   0.978   1.612   2.904 -1.9462  0.2773  0.2377
  615SOL    HW2 1845   0.893   1.634   3.047  0.9370 -2.4529  0.7231
  616SOL     OW 1846   1.421   0.308   2.506  0.2108  0.1490  0.2460
  616SOL    HW1 1847   1.433   0.210   2.518 -0.8104  1.5526 -2.9112
  616SOL    HW2 1848   1.402   0.364   2.591 -0.9045 -0.9543 -1.2191
  617SOL     OW 1849   1.437   1.409   2.055 -0.3736 -0.6702 -0.1010
  617SOL    HW1 1850   1.527   1.409   2.004  1.4084 -1.2827 -1.4222
  617SOL    HW2 1851   1.445   1.483   2.126  0.1701 -0.6555  0.7273
  618SOL     OW 1852   0.813   1.352   1.344 -0.0282  0.3836 -0.0562
  618SOL    HW1 1853   0.720   1.384   1.372 -0.4404  2.6636 -0.9269
  618SOL    HW2 1854   0.883   1.423   1.356  2.7599 -1.3917  0.5544
  619SOL     OW 1855   2.554   2.152   2.273 -0.2440 -0.0613  0.0056
  619SOL    HW1 1856   2.603   2.117   2.355  2.9335  2.0777  2.1276
  619SOL    HW2 1857   2.541   2.081   2.200  0.8059 -2.5917  1.5334
  620SOL     OW 1858   2.146   1.239   2.768 -0.1971  0.2445  0.3136
  620SOL    HW1 1859   2.115   1.263   2.865  0.4201 -3.1572  1.5208
  620SOL    HW2 1860   2.196   1.150   2.763  0.9759  2.3873  1.3646
  621SOL     OW 1861   2.660   2.873   1.022 -0.2396 -0.8417 -0.4838
  621SOL    HW1 1862   2.699   2.829   0.941  0.4188  0.0274  0.2858
  621SOL    HW2 1863   2.560   2.889   1.002  0.6351 -0.1686 -1.6726
  622SOL     OW 1864   1.109   0.444   1.941  0.0345 -0.7861  0.0482
  622SOL    HW1 1865   1.144   0.470   1.848  1.4750 -2.6172  0.9398
  622SOL    HW2 1866   1.120   0.343   1.957 -0.8091 -0.4480 -0.1870
  623SOL     OW 1867   0.828   1.227   2.635  0.1184  0.5717 -0.2326
  623SOL    HW1 1868   0.845   1.260   2.542 -2.3846  3.6959  0.4637
  623SOL    HW2 1869   0.779   1.297   2.697 -1.1981 -1.5375 -2.6192
  624SOL     OW 1870   2.191   0.083   1.919 -0.3327  0.1407  0.1630
  624SOL    HW1 1871   2.179  -0.018   1.943  1.7071  0.4031 -2.2292
  624SOL    HW2 1872   2.280   0.095   1.868  0.5820  1.8281 -3.7995
  625SOL     OW 1873   0.068   1.323   0.123  0.6558  0.7377 -0.2784
  625SOL    HW1 1874   0.162   1.358   0.128 -0.9491 -0.3291  1.1542
  625SOL    HW2 1875   0.068   1.232   0.168  1.3217  0.6689 -0.5518
  626SOL     OW 1876   2.004   1.431   2.402 -0.0714  0.2646  0.3130
  626SOL    HW1 1877   1.903   1.420   2.415 -2.0110  0.7751  0.5734
  626SOL    HW2 1878   2.059   1.348   2.390 -0.6140  2.3709 -0.0275
  627SOL     OW 1879   1.233   0.730   2.302 -0.3424  0.3819 -0.6762
  627SOL    HW1 1880   1.198   0.703   2.393 -0.1044  3.7032 -2.2858
  627SOL    HW2 1881   1.197   0.819   2.265 -0.4061 -2.3265 -0.3951
  628SOL     OW 1882   1.795   0.046   2.382 -0.1399 -0.2010 -0.2376
  628SOL    HW1 1883   1.866  -0.019   2.413  1.6179  3.0963 -1.5537
  628SOL    HW2 1884   1.839   0.133   2.358 -2.1886  1.8183 -0.7121
  629SOL     OW 1885   1.140   1.412   3.071  0.0564  0.0339 -0.2032
  629SOL    HW1 1886   1.075   1.334   3.052  0.8189  0.4206  1.1351
  629SOL    HW2 1887   1.092   1.498   3.059  0.5009  0.2562 -2.4636
  630SOL     OW 1888   1.086   0.254   2.806 -0.2339  0.0534  0.2098
  630SOL    HW1 1889   1.004   0.261   2.864 -0.3675  2.6666  2.1294
  630SOL    HW2 1890   1.064   0.266   2.705  0.6185 -1.6240  1.8993
  631SOL     OW 1891   1.934   0.677   0.215 -0.4707  0.2790 -0.6612
  631SOL    HW1 1892   1.989   0.736   0.280  0.7104 -2.4709 -0.2345
  631SOL    HW2 1893   1.953   0.580   0.220 -1.3563  1.9655  1.5311
  632SOL     OW 1894   2.780   1.380   0.569  0.2511  0.0931 -0.1192
  632SOL    HW1 1895   2.818   1.473   0.554  0.5695 -3.7450  1.0400
  632SOL    HW2 1896   2.852   1.316   0.594 -1.9130  0.2997  2.7683
  633SOL     OW 1897   1.728   1.558   0.251 -0.1352  0.3273 -0.6335
  633SOL    HW1 1898   1.787   1.488   0.212 -3.1980 -1.7869  5.1013
  633SOL    HW2 1899   1.645   1.568   0.188 -0.5659 -0.2228  0.9743
  634SOL     OW 1900   1.391   0.556   2.667 -0.0549 -0.1630 -0.8413
  634SOL    HW1 1901   1.389   0.527   2.766 -1.1155 -0.6020  1.9680
  634SOL    HW2 1902   1.488   0.585   2.649 -2.1628 -0.7462 -0.2041
  635SOL     OW 1903   2.142   0.169   1.594 -0.6402  0.3488  0.4713
  635SOL    HW1 1904   2.104   0.181   1.499 -2.5715 -0.3264  0.0819
  635SOL    HW2 1905   2.140   0.068   1.612  1.1197 -0.1852 -0.2636
  636SOL     OW 1906   1.575   0.415   1.842 -0.5035  0.4864 -0.0685
  636SOL    HW1 1907   1.542   0.342   1.906 -2.0569  0.1005  1.8308
  636SOL    HW2 1908   1.616   0.371   1.759 -0.9600 -0.9115 -1.5420
  637SOL     OW 1909   2.113   0.721   2.638  0.6508 -0.5505  0.0351
  637SOL    HW1 1910   2.069   0.759   2.724  1.1620 -0.8944  0.8491
  637SOL    HW2 1911   2.158   0.798   2.582 -2.3824  0.0148  1.2361
  638SOL     OW 1912   0.616   2.409   2.233 -0.2748 -0.0364  0.0610
  638SOL    HW1 1913   0.645   2.502   2.204 -0.1588 -1.0689 -0.7752
  638SOL    HW2 1914   0.620   2.403   2.332  0.9466 -0.0664 -0.7065
  639SOL     OW 1915   1.413   1.319   0.671  0.0688 -0.1153  0.3746
  639SOL    HW1 1916   1.449   1.225   0.688  1.5069  0.1000 -1.7184
  639SOL    HW2 1917   1.429   1.344   0.576 -3.2871  1.0029 -1.5160
  640SOL     OW 1918   2.783   0.081   2.361 -0.5094  0.0642  0.0002
  640SOL    HW1 1919   2.690   0.088   2.323  0.1284 -1.1238 -0.2090
  640SOL    HW2 1920   2.826  -0.010   2.333  0.3399 -0.5299  0.4725
  641SOL     OW 1921   0.866   0.659   1.281  0.1253 -0.5352  0.4965
  641SOL    HW1 1922   0.855   0.561   1.311 -1.1335  0.0106 -1.5668
  641SOL    HW2 1923   0.898   0.660   1.186  2.3679 -1.0102  0.3212
  642SOL     OW 1924   0.856   1.680   1.243  0.2763 -0.8540 -0.3367
  642SOL    HW1 1925   0.816   1.753   1.300 -0.8107 -2.2436  1.2227
  642SOL    HW2 1926   0.928   1.632   1.299  2.5592  2.4077  1.1533
  643SOL     OW 1927   1.142   1.811   0.145 -0.0453 -0.3154 -0.3533
  643SOL    HW1 1928   1.082   1.762   0.086  2.2252 -2.6876 -2.0060
  643SOL    HW2 1929   1.237   1.815   0.099  0.3598 -0.2758 -1.9580
  644SOL     OW 1930   2.005   2.315   0.344 -0.2230  0.1983 -0.0635
  644SOL    HW1 1931   1.920   2.290   0.398 -0.4094  2.3701 -0.2061
  644SOL    HW2 1932   1.999   2.278   0.245  0.2545  2.2355 -0.0735
  645SOL     OW 1933   0.944   1.527   1.623 -0.4286  0.1287  0.1740
  645SOL    HW1 1934   1.008   1.456   1.648 -2.9561  1.0925  1.5227
  645SOL    HW2 1935   0.848   1.498   1.648 -0.5569 -1.1515 -1.2257
  646SOL     OW 1936   0.101   2.017   2.038  0.1739 -0.1465  0.8145
  646SOL    HW1 1937   0.061   1.963   1.962 -0.8403  0.2513 -1.0249
  646SOL    HW2 1938   0.056   2.107   2.058  0.7328  0.3039  3.0199
  647SOL     OW 1939   3.012   1.156   2.310  0.2731 -0.7485  0.2709
  647SOL    HW1 1940   3.062   1.175   2.395 -1.3243  2.0949  0.4112
  647SOL    HW2 1941   3.010   1.234   2.241  1.0184 -2.3344  2.0942
  648SOL     OW 1942   0.159   1.503   1.952 -0.3828 -0.2353  0.6129
  648SOL    HW1 1943   0.061   1.485   1.936 -1.8527  1.7801 -1.0758
  648SOL    HW2 1944   0.180   1.594   1.989  0.8961  0.0191  1.5381
  649SOL     OW 1945   2.105   2.938   1.338 -0.4487  0.7777 -0.3052
  649SOL    HW1 1946   2.070   3.016   1.282 -1.2001  0.4336 -0.5699
  649SOL    HW2 1947   2.165   2.878   1.282  1.3739 -0.1823  1.3108
  650SOL     OW 1948   0.751   2.485   0.004  0.6739  0.3419 -0.4799
  650SOL    HW1 1949   0.674   2.452   0.062 -3.3017 -1.8792  1.5120
  650SOL    HW2 1950   0.725   2.564  -0.056 -0.3760  1.0258  0.4322
  651SOL     OW 1951   0.549   1.973   0.549 -0.0136  0.0486  0.4299
  651SOL    HW1 1952   0.478   1.932   0.613  0.6599  2.1284 -1.2531
  651SOL    HW2 1953   0.642   1.934   0.576  1.6483  1.4278  0.6126
  652SOL     OW 1954   1.161   0.925   1.565  0.3998 -0.1571 -0.1380
  652SOL    HW1 1955   1.220   0.852   1.522 -1.8532  0.7251  0.1365
  652SOL    HW2 1956   1.170   0.907   1.668 -0.3156  1.8039 -1.6503
  653SOL     OW 1957   0.853   2.608   1.728  0.3899  0.4085  0.1415
  653SOL    HW1 1958   0.897   2.635   1.640 -0.0867  1.8071  0.1874
  653SOL    HW2 1959   0.775   2.674   1.744 -0.9468  0.0596 -1.2617
  654SOL     OW 1960   1.820   2.104   2.403 -0.1307 -0.0697  0.5702
  654SOL    HW1 1961   1.729   2.146   2.385 -0.9173 -0.6349 -0.5249
  654SOL    HW2 1962   1.869   2.082   2.315  2.4203  0.3009  0.4662
  655SOL     OW 1963   2.887   2.605   1.373 -0.2828  0.0135 -0.0435
  655SOL    HW1 1964   2.965   2.577   1.313 -1.4208 -0.9496  0.3942
  655SOL    HW2 1965   2.909   2.661   1.455  0.3449  0.7345  0.1334
  656SOL     OW 1966   1.866   1.776   0.298 -0.6291  0.2007  0.3052
  656SOL    HW1 1967   1.818   1.857   0.259  0.3700 -0.4593  0.0660
  656SOL    HW2 1968   1.822   1.685   0.278 -0.4863 -2.4602  1.5952
  657SOL     OW 1969   0.112   2.126   1.025 -0.3886 -0.4004  0.2596
  657SOL    HW1 1970   0.058   2.203   1.061 -0.0676  1.4596 -0.3630
  657SOL    HW2 1971   0.050   2.055   0.985 -0.4474 -2.1226 -2.1174
  658SOL     OW 1972   0.514   1.964   1.469 -0.0009 -0.2417  0.1514
  658SOL    HW1 1973   0.444   1.891   1.480  0.5478 -1.5301  0.4403
  658SOL    HW2 1974   0.487   2.047   1.408  0.7865  3.6567  0.7467
  659SOL     OW 1975   2.018   0.594   1.282 -0.2412  0.0585 -0.0655
  659SOL    HW1 1976   2.087   0.525   1.306  3.6221  0.7634 -0.6620
  659SOL    HW2 1977   2.061   0.683   1.253 -1.5903 -0.2174 -1.3498
  660SOL     OW 1978   2.761   0.332   0.118 -0.3010 -0.3693  0.2637
  660SOL    HW1 1979   2.730   0.376   0.031  0.3578  0.5271 -0.2909
  660SOL    HW2 1980   2.738   0.390   0.205 -3.8748 -0.4672 -0.4375
  661SOL     OW 1981   0.957   1.671   0.564 -0.1563  0.4206 -0.8063
  661SOL    HW1 1982   1.031   1.686   0.501 -0.6207 -0.1363 -1.9393
  661SOL    HW2 1983   0.980   1.657   0.660 -1.1223 -4.1288  2.9709
  662SOL     OW 1984   2.105   1.328   1.498 -0.4164 -0.1654 -0.1738
  662SOL    HW1 1985   2.038   1.258   1.464 -0.6669 -1.4689  0.9260
  662SOL    HW2 1986   2.199   1.285   1.513  2.6658  3.7736 -2.3455
  663SOL     OW 1987   2.352   1.406   0.284 -0.1614 -0.3012 -0.5301
  663SOL    HW1 1988   2.437   1.359   0.300 -0.0623  0.6808  2.2315
  663SOL    HW2 1989   2.352   1.444   0.187  2.1141 -0.0516 -3.6479
  664SOL     OW 1990   0.920   0.908   1.371 -0.5380  0.3535  0.0655
  664SOL    HW1 1991   0.899   0.810   1.343  0.6438  3.4156 -0.1150
  664SOL    HW2 1992   0.993   0.918   1.441  0.3697  2.5984  1.6864
  665SOL     OW 1993   1.007   1.161   3.030 -0.1216  1.0596 -0.0048
  665SOL    HW1 1994   0.910   1.141   3.042  0.6863  1.1051  0.7769
  665SOL    HW2 1995   1.062   1.135   3.115 -0.6634  2.1573 -1.4916
  666SOL     OW 1996   0.567   0.516   2.890 -0.0184 -0.5023 -0.4196
  666SOL    HW1 1997   0.639   0.459   2.842 -0.4896 -1.0652  0.4667
  666SOL    HW2 1998   0.606   0.558   2.971 -1.5530  0.5594  0.5354
  667SOL     OW 1999   1.218   0.606   1.073 -0.4915  0.4611 -0.6556
  667SOL    HW1 2000   1.273   0.692   1.061 -1.9871  0.5664 -0.0353
  667SOL    HW2 2001   1.121   0.623   1.059  3.3563 -1.3560 -0.1245
  668SOL     OW 2002   2.574   1.658   1.704  0.2676  0.2131 -0.0214
  668SOL    HW1 2003   2.646   1.717   1.668  1.9551 -0.7918  2.0839
  668SOL    HW2 2004   2.566   1.570   1.651  1.1592  1.5336  0.5939
  669SOL     OW 2005   1.712   2.476   2.586  0.1997  0.3672 -0.5227
  669SOL    HW1 2006   1.622   2.427   2.585  2.8894 -1.0707  0.0369
  669SOL    HW2 2007   1.784   2.437   2.647  3.8746 -1.3264  1.9680
  670SOL     OW 2008   0.293   0.647   2.230 -0.7275 -0.0548  0.0307
  670SOL    HW1 2009   0.362   0.702   2.282  3.2061 -1.2834  6.4786
  670SOL    HW2 2010   0.244   0.586   2.295  0.0007 -0.0119 -1.7206
  671SOL     OW 2011   0.060   2.510   0.275 -0.4369  0.6831  0.2444
  671SOL    HW1 2012   0.040   2.595   0.322  1.6015 -2.8572 -0.8750
  671SOL    HW2 2013   0.157   2.487   0.295 -0.7874  2.3381 -3.1958
  672SOL     OW 2014   3.068   1.632   0.916 -0.5610  0.1073 -0.2267
  672SOL    HW1 2015   3.079   1.647   0.817  2.9715 -1.1645  0.6009
  672SOL    HW2 2016   2.986   1.582   0.942 -0.3176 -2.2278  0.4476
  673SOL     OW 2017   2.964   2.386   1.664 -0.2456  0.7490  0.4470
  673SOL    HW1 2018   3.042   2.444   1.632 -2.1104 -1.3690  0.5402
  673SOL    HW2 2019   2.930   2.319   1.594 -0.7733  0.5312  1.8167
  674SOL     OW 2020   1.080   1.324   1.733 -0.3496  0.5692 -0.1855
  674SOL    HW1 2021   1.031   1.283   1.811  0.8799  1.1478  0.0422
  674SOL    HW2 2022   1.157   1.380   1.765  1.0352  2.1124 -0.3568
  675SOL     OW 2023   1.251   1.347   1.324 -0.5559  0.1520  0.3044
  675SOL    HW1 2024   1.215   1.278   1.389  0.9156 -0.2439  0.6767
  675SOL    HW2 2025   1.294   1.305   1.245 -2.3502  0.0208  0.0403
  676SOL     OW 2026   2.370   1.594   2.174 -0.8270 -0.5947 -0.0413
  676SOL    HW1 2027   2.434   1.614   2.097 -0.2290 -1.5938 -0.5925
  676SOL    HW2 2028   2.394   1.637   2.262  1.4753  3.3749  1.1004
  677SOL     OW 2029   2.090   0.673   2.027 -0.2802  0.2203  0.4575
  677SOL    HW1 2030   2.029   0.663   1.946  0.2442 -0.9724  1.2946
  677SOL    HW2 2031   2.092   0.770   2.055 -0.2969  1.2209  0.2448
  678SOL     OW 2032   3.036   1.409   1.385 -0.4461 -0.3027 -0.5587
  678SOL    HW1 2033   3.093   1.475   1.435 -3.1763 -0.4959  0.7263
  678SOL    HW2 2034   3.080   1.387   1.296 -0.2041  3.2623  1.2535
  679SOL     OW 2035   2.555   3.037   0.007  0.3622  0.3301  0.0068
  679SOL    HW1 2036   2.640   3.013   0.055 -0.2731  0.3335 -1.8809
  679SOL    HW2 2037   2.483   2.967   0.038 -0.2915 -0.0928  0.3907
  680SOL     OW 2038   0.260   2.530   0.990  0.3960 -0.1315 -0.1046
  680SOL    HW1 2039   0.234   2.528   1.092 -0.8047  0.2604  0.3104
  680SOL    HW2 2040   0.298   2.441   0.968 -0.5160  1.3743 -1.2214
  681SOL     OW 2041   1.538   2.883   0.825  0.5450 -0.5445  0.3117
  681SOL    HW1 2042   1.556   2.879   0.724 -0.7304 -2.1784  0.2399
  681SOL    HW2 2043   1.535   2.788   0.864  2.9787  0.3399 -1.9388
  682SOL     OW 2044   1.819   3.082   1.661 -0.4991  0.1740  0.1728
  682SOL    HW1 2045   1.842   3.174   1.694  2.4967  2.2303  1.0692
  682SOL    HW2 2046   1.826   3.073   1.555  0.7204  3.0201 -3.2726
  683SOL     OW 2047   2.428   2.508   2.034  0.3217 -0.1689  0.4973
  683SOL    HW1 2048   2.480   2.520   1.946  1.4135  0.5057 -0.8564
  683SOL    HW2 2049   2.492   2.469   2.106  0.3772 -0.0480  2.0494
  684SOL     OW 2050   0.164   0.372   2.659 -0.6815 -0.3942 -0.0180
  684SOL    HW1 2051   0.251   0.420   2.664  1.7757  1.6904 -3.1883
  684SOL    HW2 2052   0.094   0.417   2.718 -0.8867  0.9920  0.7247
  685SOL     OW 2053   1.373   1.241   1.100  0.1901  0.5823  0.0889
  685SOL    HW1 2054   1.475   1.244   1.125  2.2744 -1.7728 -0.5205
  685SOL    HW2 2055   1.344   1.327   1.056  1.1553  0.6583 -0.4207
  686SOL     OW 2056   0.196   0.656   1.981  0.4580 -0.2818  0.7709
  686SOL    HW1 2057   0.234   0.733   1.932  1.1774  0.7229 -0.2310
  686SOL    HW2 2058   0.239   0.650   2.075 -0.4767 -1.4151 -0.8903
  687SOL     OW 2059   1.659   2.658   0.516  0.4593  0.2812 -0.3782
  687SOL    HW1 2060   1.726   2.641   0.592  1.7425 -0.7138  0.6298
  687SOL    HW2 2061   1.603   2.746   0.523 -0.5690 -0.6563  0.1725
  688SOL     OW 2062   0.860   1.782   2.026  0.4898 -0.7046  0.1532
  688SOL    HW1 2063   0.853   1.855   2.096  0.3436  0.3009  0.3790
  688SOL    HW2 2064   0.954   1.737   2.019  0.3050 -1.0842  0.4302
  689SOL     OW 2065   2.585   1.830   1.145 -0.3269  0.4844 -0.6110
  689SOL    HW1 2066   2.611   1.792   1.052  1.1197  1.2284 -1.6196
  689SOL    HW2 2067   2.499   1.785   1.189  0.9966  0.9454 -0.6522
  690SOL     OW 2068   2.545   1.673   1.973  0.3287 -0.2421  0.2119
  690SOL    HW1 2069   2.641   1.666   2.004 -0.5249  1.0160  0.9009
  690SOL    HW2 2070   2.541   1.679   1.869 -1.8937  3.4667 -0.6824
  691SOL     OW 2071   0.750   1.853   1.394  0.0799  0.2565 -0.0413
  691SOL    HW1 2072   0.664   1.887   1.436  1.1816 -1.0404  1.0170
  691SOL    HW2 2073   0.831   1.851   1.462  0.4787 -0.6137 -4.0795
  692SOL     OW 2074   0.671   0.457   0.453  0.0647 -0.2246 -0.1766
  692SOL    HW1 2075   0.702   0.361   0.446  1.2722  2.7574 -0.6556
  692SOL    HW2 2076   0.573   0.462   0.422  2.3559  1.8020  1.0884
  693SOL     OW 2077   0.155   0.501   2.396  0.5413  0.6900  0.5097
  693SOL    HW1 2078   0.163   0.464   2.492 -0.3457  1.1021 -0.0752
  693SOL    HW2 2079   0.055   0.518   2.374 -1.3053  2.1585 -1.4709
  694SOL     OW 2080   2.181   3.009   2.484  0.3893  0.1134 -0.4296
  694SOL    HW1 2081   2.090   2.971   2.456 -1.7118 -0.0424 -1.2822
  694SOL    HW2 2082   2.234   3.036   2.401 -2.2202  2.9489 -0.9324
  695SOL     OW 2083   2.359   1.379   2.369  0.0325  0.7438  0.3812
  695SOL    HW1 2084   2.365   1.475   2.338  1.3237  0.2461  0.3321
  695SOL    HW2 2085   2.455   1.344   2.391 -0.6787 -2.3667  1.5200
  696SOL     OW 2086   1.311   1.917   2.770 -0.2440 -0.7328 -0.0885
  696SOL    HW1 2087   1.405   1.934   2.800 -1.6143  0.8398 -0.8494
  696SOL    HW2 2088   1.315   1.865   2.682  1.7798  1.5313  2.7474
  697SOL     OW 2089   1.695   1.878   1.583  0.3347  0.1042 -0.2098
  697SOL    HW1 2090   1.628   1.879   1.662  0.7312 -0.0015  1.1146
  697SOL    HW2 2091   1.673   1.952   1.522  0.0695  1.5398  0.3917
  698SOL     OW 2092   0.188   1.707   0.369 -0.0608 -0.4049 -0.3292
  698SOL    HW1 2093   0.127   1.652   0.309 -0.1003  0.2249  1.0514
  698SOL    HW2 2094   0.197   1.666   0.461  0.7026 -0.0804 -1.3794
  699SOL     OW 2095   1.898   1.212   2.630 -0.1279 -0.8194 -0.7512
  699SOL    HW1 2096   1.864   1.122   2.599  1.1172 -1.9752  1.8899
  699SOL    HW2 2097   1.969   1.203   2.701 -0.7382 -0.9325  2.8127
  700SOL     OW 2098   0.305   2.479   2.103  0.1897 -0.5964 -0.8977
  700SOL    HW1 2099   0.221   2.502   2.059 -0.5236 -1.2543 -0.8301
  700SOL    HW2 2100   0.296   2.380   2.139  1.0337 -1.3233 -0.7107
  701SOL     OW 2101   2.942   0.718   0.818  0.3801  0.3907 -0.6665
  701SOL    HW1 2102   3.032   0.762   0.833 -0.7226 -0.5068  1.4477
  701SOL    HW2 2103   2.884   0.764   0.748  1.5557  0.2761  0.7308
  702SOL     OW 2104   1.907   0.038   0.868 -0.1890  0.3050  0.3177
  702SOL    HW1 2105   1.939   0.127   0.835  3.4538 -0.1156 -0.5457
  702SOL    HW2 2106   1.808   0.030   0.901 -0.0182  0.5930 -0.6443
  703SOL     OW 2107   2.532   1.388   0.689 -0.0624 -0.5792 -0.2736
  703SOL    HW1 2108   2.619   1.410   0.639  2.8920  0.4623  0.4900
  703SOL    HW2 2109   2.452   1.429   0.638  2.5776 -0.8768 -1.2761
  704SOL     OW 2110   1.534   0.269   1.027 -0.0982  0.0940 -0.0284
  704SOL    HW1 2111   1.491   0.229   1.107  3.2395 -0.8534 -0.2646
  704SOL    HW2 2112   1.472   0.299   0.958 -0.3594  2.1964 -1.8922
  705SOL     OW 2113   2.547   1.492   2.833 -0.2869 -0.4572 -0.4609
  705SOL    HW1 2114   2.450   1.526   2.857  2.2311  3.5420 -0.1634
  705SOL    HW2 2115   2.584   1.537   2.749 -0.3336 -0.3066  0.9831
  706SOL     OW 2116   0.700   2.712   2.927 -0.0715 -0.0838 -0.4161
  706SOL    HW1 2117   0.796   2.734   2.952 -0.4156  0.3449 -0.8894
  706SOL    HW2 2118   0.684   2.674   2.835  0.8745 -0.6666  2.0510
  707SOL     OW 2119   0.682   0.207   1.959  0.3524  0.1387  0.1796
  707SOL    HW1 2120   0.707   0.154   1.874  3.2023 -0.7383  3.4692
  707SOL    HW2 2121   0.723   0.299   1.947  0.7561  0.4003 -0.4858
  708SOL     OW 2122   1.037   1.545   1.374  0.4143 -0.8168 -0.2453
  708SOL    HW1 2123   1.105   1.474   1.341 -0.6163 -1.3853  2.2558
  708SOL    HW2 2124   1.017   1.534   1.475  0.0191  0.3444 -0.9611
  709SOL     OW 2125   2.650   1.079   2.292 -0.1104 -0.5319 -0.3442
  709SOL    HW1 2126   2.569   1.036   2.251  2.5122 -1.8242 -3.1415
  709SOL    HW2 2127   2.722   1.009   2.312 -2.0542  1.9860  1.8014
  710SOL     OW 2128   2.707   0.771   0.988  0.1448  0.7172 -0.2275
  710SOL    HW1 2129   2.683   0.868   0.974 -2.8086 -1.0030  0.1431
  710SOL    HW2 2130   2.786   0.742   0.930  0.5375 -2.0228 -0.3889
  711SOL     OW 2131   0.249   2.524   1.318  0.1755 -0.4248  0.3943
  711SOL    HW1 2132   0.243   2.431   1.362  0.8195  3.0722 -1.1653
  711SOL    HW2 2133   0.329   2.574   1.361  0.3050  1.7819 -0.3233
  712SOL     OW 2134   0.780   3.045   2.374  0.0435  0.8477  0.2011
  712SOL    HW1 2135   0.682   3.019   2.365  1.0019 -0.7885  0.7985
  712SOL    HW2 2136   0.797   3.144   2.378 -0.7981 -0.1282  1.2509
  713SOL     OW 2137   2.202   2.553   2.827 -0.0587  0.8500 -0.1685
  713SOL    HW1 2138   2.288   2.607   2.819 -2.1411  2.9655  0.2382
  713SOL    HW2 2139   2.186   2.495   2.747 -0.3324  2.3381  2.6555
  714SOL     OW 2140   1.521   1.453   2.476  0.1423  0.0527  0.1414
  714SOL    HW1 2141   1.614   1.431   2.455  1.1829 -0.3651 -0.2234
  714SOL    HW2 2142   1.456   1.377   2.463  0.8559 -1.8385 -0.8798
  715SOL     OW 2143   0.303   0.998   0.387  0.2345 -0.1031 -0.3815
  715SOL    HW1 2144   0.318   0.907   0.426 -0.5736  0.4866 -2.9232
  715SOL    HW2 2145   0.364   1.020   0.306  0.5895  0.0838 -0.4343
  716SOL     OW 2146   3.023   0.687   2.048 -0.4932 -0.6576 -0.5811
  716SOL    HW1 2147   3.023   0.783   2.066  0.8070 -1.5240  0.7671
  716SOL    HW2 2148   3.111   0.651   2.011 -1.6099 -0.0557  0.0277
  717SOL     OW 2149   1.562   3.044   2.290  0.3074 -0.2835 -0.0097
  717SOL    HW1 2150   1.529   3.051   2.193 -0.5272 -2.7353  0.4809
  717SOL    HW2 2151   1.655   3.083   2.299 -0.5048  1.0515 -0.6734
  718SOL     OW 2152   1.062   2.423   0.246 -0.2775  0.1516 -0.1913
  718SOL    HW1 2153   1.064   2.322   0.229 -0.2792 -0.0647  0.3289
  718SOL    HW2 2154   1.083   2.469   0.159  1.2494  1.5259 -3.2342
  719SOL     OW 2155   2.630   2.412   2.200 -0.7530 -0.0624 -0.2067
  719SOL    HW1 2156   2.614   2.315   2.229  1.6056  2.1573  0.2081
  719SOL    HW2 2157   2.728   2.432   2.222 -0.0412  0.0596 -0.9180
  720SOL     OW 2158   2.426   0.985   2.123 -0.2619 -0.2849  0.3049
  720SOL    HW1 2159   2.476   0.969   2.038 -0.9583  2.5007 -1.3862
  720SOL    HW2 2160   2.387   1.080   2.127 -1.6832  0.9056  2.4023
  721SOL     OW 2161   0.602   3.044   1.675  0.2308  0.0015  0.5726
  721SOL    HW1 2162   0.691   3.089   1.701 -0.9711 -1.3782 -0.5542
  721SOL    HW2 2163   0.525   3.110   1.651  0.2214  0.2530  0.2330
  722SOL     OW 2164   0.337   0.781   2.616  0.1396 -0.2202  0.6482
  722SOL    HW1 2165   0.239   0.798   2.606  0.5249 -1.3102 -1.3635
  722SOL    HW2 2166   0.382   0.862   2.658  0.8284 -2.2450  1.8431
  723SOL     OW 2167   2.032   0.968   2.035  0.5468  0.4256  0.2160
  723SOL    HW1 2168   2.031   0.998   2.131  4.9323 -1.1940 -1.1577
  723SOL    HW2 2169   2.094   1.024   1.980 -0.7738 -1.1933  1.1010
  724SOL     OW 2170   0.410   1.854   0.041  0.5160  0.0179  0.3226
  724SOL    HW1 2171   0.404   1.951   0.002 -0.5244 -2.5861  1.8762
  724SOL    HW2 2172   0.390   1.855   0.140 -0.2760  1.3260  1.8312
  725SOL     OW 2173   2.746   1.000   0.385 -0.0283  0.3968 -0.0956
  725SOL    HW1 2174   2.727   0.945   0.303 -0.9290  0.8869 -3.5722
  725SOL    HW2 2175   2.668   1.053   0.420 -0.3423  1.6326 -2.3124
  726SOL     OW 2176   2.047   0.060   0.513  0.5071 -0.4522 -0.6360
  726SOL    HW1 2177   2.075   0.075   0.421  0.0060 -1.8481  0.3363
  726SOL    HW2 2178   2.070  -0.033   0.539  0.4569  1.7301 -1.1634
  727SOL     OW 2179   1.348   0.593   0.427 -0.3773 -0.2862  0.5256
  727SOL    HW1 2180   1.350   0.653   0.505 -1.0718 -0.4816  0.2624
  727SOL    HW2 2181   1.430   0.536   0.425  0.7775 -1.1345  0.5838
  728SOL     OW 2182   1.865   1.630   1.259 -0.3886 -0.2292  0.2772
  728SOL    HW1 2183   1.867   1.640   1.362  0.1229 -1.0078 -3.9911
  728SOL    HW2 2184   1.776   1.676   1.235 -1.3636 -0.1059 -1.2974
  729SOL     OW 2185   2.384   0.705   1.878 -0.1971 -0.1328 -0.5093
  729SOL    HW1 2186   2.297   0.755   1.861  0.4309 -1.6725  1.5564
  729SOL    HW2 2187   2.454   0.762   1.927 -1.3479  0.4404  2.4411
  730SOL     OW 2188   2.459   0.297   1.007  0.4406 -0.0340  0.4508
  730SOL    HW1 2189   2.536   0.324   0.948 -1.1002 -0.0695  1.2855
  730SOL    HW2 2190   2.402   0.379   1.027 -0.3924 -2.1462  0.2700
  731SOL     OW 2191   0.692   3.045   0.044 -0.1752  0.1494 -0.6709
  731SOL    HW1 2192   0.716   3.097  -0.040 -1.0263  0.4656 -0.3754
  731SOL    HW2 2193   0.622   2.976   0.020 -0.3334 -1.6543 -1.1485
  732SOL     OW 2194   0.344   0.571   0.275 -0.4229 -0.4314  0.7235
  732SOL    HW1 2195   0.363   0.501   0.342  0.6849 -1.5678 -0.6047
  732SOL    HW2 2196   0.246   0.569   0.251  1.2561 -0.8893 -0.4787
  733SOL     OW 2197   0.910   1.238   1.072  0.1337  0.1922 -0.1950
  733SOL    HW1 2198   0.886   1.271   1.165 -0.8706 -0.9239 -2.8101
  733SOL    HW2 2199   0.823   1.205   1.031  1.4318  0.2930  1.7152
  734SOL     OW 2200   1.279   2.011   2.313  0.1355 -0.2797  0.3086
  734SOL    HW1 2201   1.321   2.080   2.252 -3.1229  2.3628  0.6985
  734SOL    HW2 2202   1.265   1.925   2.258 -0.0417  0.0729  2.1235
  735SOL     OW 2203   0.889   2.259   3.049  0.1264  0.2377 -0.3864
  735SOL    HW1 2204   0.846   2.350   3.073  1.2769 -0.5163 -3.8447
  735SOL    HW2 2205   0.970   2.243   3.109 -0.4041  0.2744  0.3415
  736SOL     OW 2206   2.293   2.085   3.077  0.2154  0.5697  0.1712
  736SOL    HW1 2207   2.281   2.188   3.064  0.4246  1.9833  0.7091
  736SOL    HW2 2208   2.199   2.053   3.107 -0.9476 -0.9038  1.8622
  737SOL     OW 2209   0.569   3.056   0.305 -0.0797  0.2427 -0.4681
  737SOL    HW1 2210   0.618   3.097   0.224 -0.4101 -0.2094  2.3195
  737SOL    HW2 2211   0.514   2.978   0.279  3.5094  0.3769 -0.0248
  738SOL     OW 2212   0.365   0.118   1.634  0.7609 -0.0271 -0.2335
  738SOL    HW1 2213   0.357   0.098   1.733  1.9209 -1.1139 -1.4731
  738SOL    HW2 2214   0.400   0.215   1.623  2.0382  1.1474 -0.9466
  739SOL     OW 2215   1.455   0.197   2.917 -0.0589  0.1475  0.4650
  739SOL    HW1 2216   1.502   0.121   2.864  2.7465  1.6717 -0.7285
  739SOL    HW2 2217   1.401   0.158   2.992 -0.8245 -1.5159  0.0565
  740SOL     OW 2218   2.443   0.441   1.456 -0.2136  0.1195 -0.4939
  740SOL    HW1 2219   2.454   0.397   1.546 -0.4377 -0.3940  0.0415
  740SOL    HW2 2220   2.534   0.441   1.406 -2.2745 -1.3637 -2.5037
  741SOL     OW 2221   2.332   0.817   0.056 -0.4046 -0.0953 -0.1217
  741SOL    HW1 2222   2.301   0.879   0.131 -1.5402  2.3281  0.3487
  741SOL    HW2 2223   2.380   0.867  -0.021  1.0025  0.4907  1.6847
  742SOL     OW 2224   1.422   0.024   2.509 -0.1671 -0.5395 -0.3075
  742SOL    HW1 2225   1.326   0.020   2.483  2.2675 -0.1071 -2.4040
  742SOL    HW2 2226   1.472  -0.005   2.427  0.9370 -0.0814 -1.4541
  743SOL     OW 2227   1.973   1.872   1.873  0.2982 -0.1054 -0.0464
  743SOL    HW1 2228   2.008   1.881   1.773  0.6512 -1.8636 -1.1771
  743SOL    HW2 2229   1.879   1.922   1.875 -1.4771  0.0775 -2.5517
  744SOL     OW 2230   0.403   2.850   0.219 -0.0004 -0.5990  0.0264
  744SOL    HW1 2231   0.432   2.845   0.118 -3.5960  0.7482  0.9303
  744SOL    HW2 2232   0.304   2.878   0.228  1.6287  0.6739  2.2652
  745SOL     OW 2233   2.696   2.796   1.299  0.0465 -0.1993  0.0834
  745SOL    HW1 2234   2.695   2.823   1.199 -1.8437 -0.3387  0.7503
  745SOL    HW2 2235   2.750   2.711   1.312  2.4444 -3.9241  3.7413
  746SOL     OW 2236   1.599   1.735   0.906  0.1207 -0.2902  0.5495
  746SOL    HW1 2237   1.638   1.764   0.818  0.7179 -1.5528  1.2039
  746SOL    HW2 2238   1.578   1.636   0.909 -0.1336  1.1371  0.0577
  747SOL     OW 2239   1.178   1.894   1.542  1.1983  0.1724 -0.6212
  747SOL    HW1 2240   1.139   1.967   1.483 -0.3235  1.3038 -0.9229
  747SOL    HW2 2241   1.243   1.830   1.496 -0.5612  1.4409  1.6105
  748SOL     OW 2242   0.633   2.650   2.670  0.3259  0.2780 -0.4687
  748SOL    HW1 2243   0.694   2.659   2.592  1.3679  0.1299  2.2726
  748SOL    HW2 2244   0.573   2.734   2.682  1.9353  1.3436  1.0072
  749SOL     OW 2245   0.966   1.575   2.755 -0.3856  0.0537 -0.7542
  749SOL    HW1 2246   1.038   1.544   2.683  0.3116 -0.6402 -0.9887
  749SOL    HW2 2247   0.917   1.652   2.714 -0.9416  1.8007  0.3096
  750SOL     OW 2248   2.144   1.598   1.432  0.2975  0.2852  0.1842
  750SOL    HW1 2249   2.171   1.501   1.446 -1.9260  0.9371 -0.9157
  750SOL    HW2 2250   2.043   1.596   1.415 -1.5588 -0.1171  0.7038
  751SOL     OW 2251   2.974   0.800   0.495  0.5177 -0.4452  0.1639
  751SOL    HW1 2252   3.063   0.759   0.536 -3.4467  1.8243  0.5083
  751SOL    HW2 2253   2.972   0.900   0.488 -0.5914 -2.8052  2.3841
  752SOL     OW 2254   0.165   0.469   1.080 -0.3266 -0.8459 -0.1277
  752SOL    HW1 2255   0.094   0.452   1.153  0.5587  2.3761  1.2104
  752SOL    HW2 2256   0.249   0.410   1.098  2.4283 -0.8819 -0.5239
  753SOL     OW 2257   0.931   2.303   0.670 -0.2254  0.0867  0.2265
  753SOL    HW1 2258   1.004   2.351   0.610 -0.8997  1.9961  0.9482
  753SOL    HW2 2259   0.945   2.201   0.671  1.6919  0.7770 -1.5668
  754SOL     OW 2260   0.688   1.088   1.021 -0.3616 -0.0792  0.5197
  754SOL    HW1 2261   0.686   1.006   0.959 -0.8403 -3.7135 -0.3677
  754SOL    HW2 2262   0.634   1.065   1.105  1.5100  0.8378  1.6415
  755SOL     OW 2263   1.344   1.001   2.709  0.0419 -0.1599 -0.1956
  755SOL    HW1 2264   1.286   0.981   2.627  1.5174 -1.5910 -0.5935
  755SOL    HW2 2265   1.293   1.063   2.774 -1.4065  0.3933 -0.0956
  756SOL     OW 2266   2.470   2.119   0.874  0.3105 -0.2506  0.5659
  756SOL    HW1 2267   2.417   2.110   0.964  0.7756  0.3814  1.3020
  756SOL    HW2 2268   2.457   2.036   0.813  0.8643 -0.3853 -1.9653
  757SOL     OW 2269   0.365   0.164   0.240  0.5687 -0.1102 -0.2471
  757SOL    HW1 2270   0.429   0.109   0.292 -2.2369  0.5974  0.3022
  757SOL    HW2 2271   0.267   0.131   0.250  0.3900  0.0213  0.7690
  758SOL     OW 2272   1.903   0.612   2.242 -0.3950  0.7683  0.2413
  758SOL    HW1 2273   1.987   0.607   2.188  1.8276  1.1540  0.6361
  758SOL    HW2 2274   1.846   0.530   2.224  0.6759 -0.3440 -2.0758
  759SOL     OW 2275   2.292   0.968   0.678 -0.2943  0.1050  0.2669
  759SOL    HW1 2276   2.367   1.023   0.634  0.5976 -1.3821  3.5046
  759SOL    HW2 2277   2.283   0.876   0.630  2.3187 -1.2466  0.1511
  760SOL     OW 2278   0.250   1.069   1.404  0.5259 -0.3537  0.0349
  760SOL    HW1 2279   0.210   0.977   1.386 -2.5987 -3.6478 -2.8648
  760SOL    HW2 2280   0.275   1.127   1.321  1.8167  1.7919 -0.5733
  761SOL     OW 2281   0.865   2.208   2.587 -0.6612  0.1092  0.2584
  761SOL    HW1 2282   0.894   2.143   2.517 -0.1389  0.8565 -0.5129
  761SOL    HW2 2283   0.883   2.308   2.558 -0.2959 -0.2475  0.1463
  762SOL     OW 2284   1.922   1.895   0.561  0.2404  1.0140 -0.1282
  762SOL    HW1 2285   2.017   1.937   0.580  1.1294 -0.3798 -0.0098
  762SOL    HW2 2286   1.913   1.863   0.464 -0.8419  0.2663 -2.2639
  763SOL     OW 2287   1.983   1.479   1.692 -0.2556  0.2512  0.2750
  763SOL    HW1 2288   2.054   1.482   1.763 -2.2752  0.3901 -0.1379
  763SOL    HW2 2289   2.031   1.437   1.608 -3.7946  2.0703 -0.9524
  764SOL     OW 2290   0.045   2.792   3.092  0.0064 -0.1463  0.2848
  764SOL    HW1 2291   0.072   2.756   3.002  0.3010  0.0802 -2.3617
  764SOL    HW2 2292  -0.025   2.729   3.137  1.1112  1.8314 -0.4960
  765SOL     OW 2293   0.916   0.570   1.569  0.2942 -0.5288 -0.5295
  765SOL    HW1 2294   0.926   0.470   1.583 -0.2522 -0.2201 -1.3341
  765SOL    HW2 2295   1.004   0.609   1.536  1.3861  1.0169 -1.3844
  766SOL     OW 2296   2.896   1.293   2.611 -0.6321 -0.2712  0.4644
  766SOL    HW1 2297   2.932   1.333   2.693 -0.2839  2.7519  2.0088
  766SOL    HW2 2298   2.914   1.366   2.541 -0.4625  1.0913  1.6251
  767SOL     OW 2299   0.946   0.527   2.689  0.2266 -0.1930  0.2809
  767SOL    HW1 2300   1.036   0.544   2.643 -2.1806 -1.6323  2.0024
  767SOL    HW2 2301   0.950   0.525   2.795 -0.0255  1.1271 -0.4945
  768SOL     OW 2302   1.621   2.098   0.617  0.4167  0.3006 -0.0582
  768SOL    HW1 2303   1.621   2.154   0.707 -0.7055 -0.0286 -1.3321
  768SOL    HW2 2304   1.602   2.002   0.634 -2.1781  2.2401  2.9433
  769SOL     OW 2305   0.682   1.507   1.094 -0.1288 -0.0938  0.0949
  769SOL    HW1 2306   0.612   1.581   1.084  1.0889 -1.0863  0.5500
  769SOL    HW2 2307   0.758   1.533   1.156 -2.2018 -2.6562 -0.6464
  770SOL     OW 2308   1.407   1.396   3.045  0.2964  0.5181  0.7467
  770SOL    HW1 2309   1.307   1.393   3.059  0.6254 -0.7712 -2.8573
  770SOL    HW2 2310   1.432   1.378   2.948  0.3603  1.3284 -0.6021
  771SOL     OW 2311   1.688   2.287   1.875 -0.0235  0.4835 -0.0595
  771SOL    HW1 2312   1.585   2.291   1.871 -0.9687 -3.6138  0.2600
  771SOL    HW2 2313   1.723   2.378   1.906  2.0666 -2.8460  2.7683
  772SOL     OW 2314   2.910   1.893   2.251 -0.1126  0.1571 -0.4406
  772SOL    HW1 2315   2.893   1.948   2.167  0.8618 -0.0332  0.3614
  772SOL    HW2 2316   3.005   1.912   2.282  0.1886 -0.5778  0.5760
  773SOL     OW 2317   0.359   1.995   1.736 -0.7385 -0.3548  0.4520
  773SOL    HW1 2318   0.421   1.973   1.655  0.3640  1.5766  1.4904
  773SOL    HW2 2319   0.332   2.093   1.732  0.5049  0.8719  2.8340
  774SOL     OW 2320   2.439   2.489   0.105 -0.0686  0.1867  0.5737
  774SOL    HW1 2321   2.431   2.499   0.209 -2.4411 -0.1998 -1.0657
  774SOL    HW2 2322   2.529   2.446   0.085  0.0319  0.7423  2.5584
  775SOL     OW 2323   1.288   2.609   2.674  0.1034  0.2535 -0.1034
  775SOL    HW1 2324   1.343   2.603   2.757 -0.2799 -2.1401 -0.5111
  775SOL    HW2 2325   1.189   2.621   2.698  0.9373  0.0574  1.3098
  776SOL     OW 2326   0.417   1.044   2.677  0.3384 -0.0296 -0.1402
  776SOL    HW1 2327   0.435   1.124   2.611 -0.5269 -0.1299 -0.0687
  776SOL    HW2 2328   0.353   1.069   2.753 -1.2805 -0.7031  0.5300
  777SOL     OW 2329   2.215   2.358   2.136 -0.0054 -0.3921 -0.1105
  777SOL    HW1 2330   2.257   2.327   2.221  2.6144  1.2893  0.2794
  777SOL    HW2 2331   2.284   2.422   2.093  2.1438 -0.1183  0.9479
  778SOL     OW 2332   1.742   1.435   2.045 -0.2617  0.4237  0.2100
  778SOL    HW1 2333   1.794   1.519   2.076 -1.6702 -2.4497 -1.0399
  778SOL    HW2 2334   1.776   1.349   2.091 -1.5456  2.3395  1.1735
  779SOL     OW 2335   2.013   1.244   2.998  0.4168 -0.3807  0.1745
  779SOL    HW1 2336   1.944   1.168   2.995 -2.0569 -1.1518 -2.6992
  779SOL    HW2 2337   2.071   1.238   3.077  0.4012  0.5044  1.3717
  780SOL     OW 2338   2.047   3.004   3.075 -0.5056 -0.4469  0.1125
  780SOL    HW1 2339   2.082   3.097   3.066 -0.8126 -0.0921  2.3977
  780SOL    HW2 2340   1.953   3.003   3.034 -0.5713  0.8124 -0.7963
  781SOL     OW 2341   2.791   2.188   1.238 -0.5226 -0.1655  0.2361
  781SOL    HW1 2342   2.696   2.158   1.219 -0.6278  2.4412  1.9163
  781SOL    HW2 2343   2.859   2.115   1.215  1.3718 -1.6649  0.9479
  782SOL     OW 2344   1.580   0.016   2.749  0.1803 -0.3824  0.0745
  782SOL    HW1 2345   1.599  -0.070   2.805  0.2682  0.1693  1.0665
  782SOL    HW2 2346   1.554  -0.013   2.657  1.3665 -1.9187 -0.8809
  783SOL     OW 2347   1.375   1.938   0.906  0.2531  0.3194 -0.3162
  783SOL    HW1 2348   1.464   1.900   0.935  3.0852 -1.1398 -2.6714
  783SOL    HW2 2349   1.338   1.898   0.817 -2.3381 -2.5061 -0.8648
  784SOL     OW 2350   2.090   0.800   0.391  0.2055 -0.3758 -0.0792
  784SOL    HW1 2351   2.057   0.895   0.396 -0.3480 -2.2304 -1.4463
  784SOL    HW2 2352   2.188   0.790   0.423 -1.2126 -1.9710  0.2340
  785SOL     OW 2353   2.506   2.571   0.780  0.0773 -0.1046  0.1192
  785SOL    HW1 2354   2.568   2.570   0.860 -0.2937 -0.6405  0.5063
  785SOL    HW2 2355   2.514   2.478   0.737  2.4315  0.8601 -0.0110
  786SOL     OW 2356   0.809   1.744   2.600 -0.2892  0.3211 -0.2845
  786SOL    HW1 2357   0.757   1.730   2.516 -1.1535 -2.3947 -0.8426
  786SOL    HW2 2358   0.750   1.757   2.683  2.5841  0.0487 -0.5785
  787SOL     OW 2359   1.124   1.177   1.496  0.2722  0.7063  0.1374
  787SOL    HW1 2360   1.148   1.084   1.518  0.1903  1.1030 -0.1320
  787SOL    HW2 2361   1.106   1.231   1.585 -0.9517 -1.1126 -1.2172
  788SOL     OW 2362   0.910   1.105   0.748 -0.3922 -0.1067  0.1935
  788SOL    HW1 2363   0.833   1.075   0.687  1.3380 -2.5078  0.9066
  788SOL    HW2 2364   0.969   1.183   0.701 -1.7895 -1.6802  0.1171
  789SOL     OW 2365   0.109   1.679   1.206  0.6513  0.1614  0.4042
  789SOL    HW1 2366   0.085   1.622   1.121 -2.7681  0.5074  1.2101
  789SOL    HW2 2367   0.028   1.714   1.253 -0.2483  2.2707 -0.9425
  790SOL     OW 2368   0.268   0.206   3.089 -0.0427 -0.7695  0.0352
  790SOL    HW1 2369   0.340   0.209   3.016  0.2719  0.7069 -0.5093
  790SOL    HW2 2370   0.314   0.191   3.178 -1.9135 -0.1815 -0.9077
  791SOL     OW 2371   0.815   3.054   0.721  0.1417  0.3753 -0.0966
  791SOL    HW1 2372   0.719   3.087   0.692  0.8587  1.9019 -0.9902
  791SOL    HW2 2373   0.822   2.954   0.703  0.3628 -1.2367  0.0793
  792SOL     OW 2374   1.416   1.101   1.823  0.3079 -0.4601 -0.7779
  792SOL    HW1 2375   1.435   1.123   1.728 -0.5173  0.5424 -1.8982
  792SOL    HW2 2376   1.330   1.051   1.827  2.3237  3.0275 -1.7512
  793SOL     OW 2377   1.363   2.207   0.025  0.6262 -0.3342  0.2392
  793SOL    HW1 2378   1.391   2.200  -0.071 -1.7045 -0.6951 -0.1622
  793SOL    HW2 2379   1.432   2.268   0.073  3.5729 -0.6778 -1.6316
  794SOL     OW 2380   0.708   1.441   1.689  0.3141  0.1005 -0.3009
  794SOL    HW1 2381   0.690   1.509   1.763  1.0022 -0.2554  2.5460
  794SOL    HW2 2382   0.667   1.457   1.600  1.4570 -0.6502 -2.3484
  795SOL     OW 2383   2.179   1.982   2.030 -0.3386  0.2175 -0.2992
  795SOL    HW1 2384   2.120   1.946   1.951 -2.3416 -0.6244 -0.4114
  795SOL    HW2 2385   2.258   2.031   1.994 -0.8802  2.3865  0.6656
  796SOL     OW 2386   2.107   1.548   2.160  0.3568  0.0992  0.2053
  796SOL    HW1 2387   2.202   1.574   2.172 -1.9179 -1.7511 -0.6607
  796SOL    HW2 2388   2.065   1.531   2.252  0.3930 -2.1771 -1.0654
  797SOL     OW 2389   0.193   2.546   2.494  0.0800 -0.0136  0.5475
  797SOL    HW1 2390   0.267   2.508   2.556 -0.0785  1.4523  3.4509
  797SOL    HW2 2391   0.197   2.493   2.410 -2.2887  2.3709  2.6198
  798SOL     OW 2392   2.876   2.269   2.535 -0.5344  0.1710 -0.2650
  798SOL    HW1 2393   2.946   2.196   2.550  2.5916  0.0736  0.9237
  798SOL    HW2 2394   2.816   2.262   2.617  0.8452  2.0562  0.3442
  799SOL     OW 2395   2.670   1.031   3.032 -0.3547  0.6513  0.8726
  799SOL    HW1 2396   2.618   1.107   2.982  0.4828 -0.4515  3.2192
  799SOL    HW2 2397   2.765   1.027   2.994  2.0320 -0.3646  0.7051
  800SOL     OW 2398   0.468   2.375   1.882 -0.0421 -0.0793 -0.4649
  800SOL    HW1 2399   0.531   2.296   1.869 -1.0026  1.1983  1.0793
  800SOL    HW2 2400   0.472   2.418   1.975  0.2459 -2.6652  1.2868
  801SOL     OW 2401   0.099   1.422   0.523  0.2681 -0.3345  0.0036
  801SOL    HW1 2402   0.163   1.344   0.524 -3.1432  1.7367  0.0444
  801SOL    HW2 2403   0.135   1.499   0.574 -0.6401  1.9854  2.1578
  802SOL     OW 2404   2.484   0.678   0.276  0.0128 -0.0509 -0.4356
  802SOL    HW1 2405   2.425   0.650   0.194  1.8138 -0.5132 -2.0985
  802SOL    HW2 2406   2.543   0.755   0.253  0.2101 -1.3500  2.4161
  803SOL     OW 2407   0.011   1.529   0.275  0.5178  0.1193  0.6039
  803SOL    HW1 2408   0.030   1.490   0.364  0.2121  2.9655  0.7568
  803SOL    HW2 2409   0.024   1.456   0.207  0.3374  2.1788  3.1676
  804SOL     OW 2410   1.189   1.437   0.422  0.0299 -0.4101 -0.4697
  804SOL    HW1 2411   1.178   1.539   0.404  2.6427  1.2743  0.4062
  804SOL    HW2 2412   1.287   1.413   0.416  2.3747  1.4105 -0.2693
  805SOL     OW 2413   0.439   0.957   0.144 -0.0441  0.2108 -0.2059
  805SOL    HW1 2414   0.535   0.986   0.159  2.1034 -0.2328 -1.0966
  805SOL    HW2 2415   0.432   0.857   0.118  1.5938  0.2476 -0.8567
  806SOL     OW 2416   0.057   2.342   0.666 -0.0965 -0.1658  0.0119
  806SOL    HW1 2417  -0.045   2.350   0.675 -5.7285 -2.4610  1.1517
  806SOL    HW2 2418   0.096   2.437   0.668 -0.1649  0.7181  1.0253
  807SOL     OW 2419   2.523   1.655   2.403  0.1455 -0.1480 -0.2210
  807SOL    HW1 2420   2.426   1.655   2.441 -1.2408  0.8137  0.5426
  807SOL    HW2 2421   2.588   1.655   2.484  2.1340 -1.4547 -0.8270
  808SOL     OW 2422   2.287   1.886   2.867 -0.2164 -0.4443 -0.1506
  808SOL    HW1 2423   2.203   1.917   2.811  0.5483  0.0683 -3.2129
  808SOL    HW2 2424   2.300   1.944   2.949 -0.5533 -0.9158  0.1229
  809SOL     OW 2425   2.880   0.926   2.340 -0.4391  0.5207  0.0199
  809SOL    HW1 2426   2.909   0.869   2.418  0.7029 -0.5458 -0.2929
  809SOL    HW2 2427   2.920   1.020   2.332  0.1258  1.0166 -2.0152
  810SOL     OW 2428   0.412   0.499   0.853 -0.6171 -0.3047 -0.3263
  810SOL    HW1 2429   0.430   0.580   0.912  1.5197  0.5327 -0.0372
  810SOL    HW2 2430   0.312   0.474   0.847  0.0569 -1.3807  1.2387
  811SOL     OW 2431   1.889   2.433   2.801  0.0352  0.3696 -0.1509
  811SOL    HW1 2432   1.973   2.468   2.754 -0.9244  1.0428  1.1901
  811SOL    HW2 2433   1.908   2.373   2.879 -0.6456  0.2346  1.4792
  812SOL     OW 2434   0.647   2.773   1.767 -0.3263  0.4246 -0.0030
  812SOL    HW1 2435   0.621   2.868   1.742  0.1187  1.0892  0.1125
  812SOL    HW2 2436   0.573   2.709   1.743  1.9827 -1.6585 -1.1948
  813SOL     OW 2437   2.352   0.696   1.530 -0.0040  0.1912  0.5027
  813SOL    HW1 2438   2.273   0.686   1.597 -3.3881 -1.9192 -1.9648
  813SOL    HW2 2439   2.378   0.604   1.490 -0.9261 -2.4925  0.8452
  814SOL     OW 2440   0.664   1.023   2.795 -0.0564 -0.3834 -0.1785
  814SOL    HW1 2441   0.564   1.024   2.770 -1.2549  1.9644 -0.2927
  814SOL    HW2 2442   0.710   1.087   2.731 -0.8099 -2.2933 -1.8627
  815SOL     OW 2443   0.702   1.197   1.821  0.3339  0.2830 -0.7216
  815SOL    HW1 2444   0.705   1.115   1.753  1.2935 -2.3265  0.9557
  815SOL    HW2 2445   0.700   1.291   1.776  0.3742 -1.7846  0.8648
  816SOL     OW 2446   3.064   0.479   2.819 -0.4595 -0.2200  0.4036
  816SOL    HW1 2447   3.093   0.456   2.912 -0.5343 -1.5446 -1.1419
  816SOL    HW2 2448   3.010   0.565   2.814  0.4198  1.8132 -0.4474
  817SOL     OW 2449   1.040   0.173   0.156  0.4781  0.2485 -0.4405
  817SOL    HW1 2450   1.130   0.132   0.130  1.5208  2.0984 -1.9611
  817SOL    HW2 2451   1.052   0.273   0.156 -1.0595 -1.3493 -1.6110
  818SOL     OW 2452   1.965   0.442   2.731 -0.5069  0.0721 -0.0829
  818SOL    HW1 2453   1.988   0.487   2.645 -1.1525  2.1696  0.4478
  818SOL    HW2 2454   1.925   0.350   2.724 -1.1100 -1.8827  2.2780
  819SOL     OW 2455   2.271   1.645   2.482 -0.0771 -0.0174  0.4257
  819SOL    HW1 2456   2.263   1.581   2.558 -0.4974 -3.6409 -0.7271
  819SOL    HW2 2457   2.205   1.727   2.491 -1.1895  1.1253  1.1608
  820SOL     OW 2458   0.406   1.846   0.305  0.0133 -0.5536 -0.2561
  820SOL    HW1 2459   0.451   1.893   0.383  2.2716 -0.1353  0.2228
  820SOL    HW2 2460   0.322   1.803   0.340 -2.3647 -2.3593  0.3336
  821SOL     OW 2461   2.815   2.510   0.270  0.0555 -0.1156 -0.2095
  821SOL    HW1 2462   2.772   2.549   0.351 -0.2146 -0.3526  3.4432
  821SOL    HW2 2463   2.874   2.429   0.297 -0.3460 -0.4288  2.0839
  822SOL     OW 2464   2.279   2.608   1.531 -0.5766  0.5917 -0.4611
  822SOL    HW1 2465   2.197   2.569   1.475  0.7082 -0.4705 -0.6419
  822SOL    HW2 2466   2.334   2.677   1.486  2.2945 -1.4300 -0.5009
  823SOL     OW 2467   1.227   0.240   1.659 -0.1639 -0.2565 -0.4338
  823SOL    HW1 2468   1.236   0.337   1.637  0.0242  0.5307  2.9936
  823SOL    HW2 2469   1.255   0.215   1.752 -0.4946 -0.9070 -2.4514
  824SOL     OW 2470   2.310   2.133   1.098 -0.4593  0.1422  0.2042
  824SOL    HW1 2471   2.400   2.118   1.142 -1.4586 -0.2601  0.1567
  824SOL    HW2 2472   2.246   2.056   1.129  2.4054  2.0766  1.2761
  825SOL     OW 2473   2.289   1.918   2.292 -0.6404 -0.0494  0.4122
  825SOL    HW1 2474   2.204   1.906   2.353 -0.2170  1.4304 -0.1588
  825SOL    HW2 2475   2.253   1.942   2.197 -0.4858 -1.6191  0.7470
  826SOL     OW 2476   2.677   2.148   1.856 -0.0416 -0.1678 -0.7047
  826SOL    HW1 2477   2.704   2.246   1.863  1.2325  0.2283  0.3207
  826SOL    HW2 2478   2.576   2.128   1.862 -0.9979  0.6005  0.3420
  827SOL     OW 2479   2.418   2.980   1.566  0.0747  0.0093 -0.4392
  827SOL    HW1 2480   2.429   2.927   1.480 -0.4409  0.3752 -2.0587
  827SOL    HW2 2481   2.316   2.997   1.583 -0.0725 -2.3024  0.8614
  828SOL     OW 2482   2.406   1.009   0.956  0.3821 -0.0098  0.1720
  828SOL    HW1 2483   2.457   1.097   0.945 -1.7448 -0.5178 -2.7235
  828SOL    HW2 2484   2.376   0.983   0.862 -3.8246  0.6308  2.0634
  829SOL     OW 2485   1.900   1.661   2.045 -0.7750 -0.3455 -0.2827
  829SOL    HW1 2486   1.980   1.613   2.086 -0.4757  3.0411 -1.0979
  829SOL    HW2 2487   1.935   1.735   1.980 -0.5579  2.2945  0.0529
  830SOL     OW 2488   1.244   0.204   1.955  0.2956 -0.3822  0.2351
  830SOL    HW1 2489   1.198   0.170   2.041  1.0625  0.5922 -0.0997
  830SOL    HW2 2490   1.343   0.183   1.965  0.3857 -0.6823 -1.3128
  831SOL     OW 2491   2.097   1.155   0.764  0.5507  0.3123  0.2893
  831SOL    HW1 2492   2.171   1.085   0.762 -2.0914  0.3095 -0.9145
  831SOL    HW2 2493   2.089   1.181   0.862 -0.2966 -0.9207  3.3361
  832SOL     OW 2494   2.204   0.899   1.397  0.9628 -0.6571  0.1685
  832SOL    HW1 2495   2.277   0.836   1.435 -0.1946 -1.8371  2.3969
  832SOL    HW2 2496   2.160   0.950   1.473 -3.3143 -1.6318 -2.5909
  833SOL     OW 2497   3.020   2.390   2.869  0.1133 -0.1538 -0.1098
  833SOL    HW1 2498   3.035   2.443   2.784  2.2988  2.3352 -0.4087
  833SOL    HW2 2499   3.074   2.434   2.940  3.3198 -2.2154 -0.6742
  834SOL     OW 2500   1.355   1.139   2.103  0.3737 -0.5689  0.7126
  834SOL    HW1 2501   1.358   1.068   2.027 -3.1500 -0.0712  3.5936
  834SOL    HW2 2502   1.385   1.234   2.076  1.2088 -1.0634  1.8135
  835SOL     OW 2503   3.052   1.163   1.764  0.0169  0.6990  0.3252
  835SOL    HW1 2504   3.113   1.115   1.829 -0.0974  1.3627 -0.0038
  835SOL    HW2 2505   3.080   1.151   1.663 -2.6662  2.2640 -3.2644
  836SOL     OW 2506   1.073   2.109   1.420  0.5186 -0.4098 -0.5418
  836SOL    HW1 2507   1.030   2.137   1.332 -1.8418 -3.3173  2.4716
  836SOL    HW2 2508   1.036   2.168   1.498  2.6487  0.8265 -1.0535
  837SOL     OW 2509   2.976   0.987   1.337  0.0262  0.3561  0.3148
  837SOL    HW1 2510   2.898   1.038   1.296 -0.5109 -0.9992  0.7568
  837SOL    HW2 2511   3.023   1.043   1.413 -3.3381  0.1663 -0.6390
  838SOL     OW 2512   0.557   1.442   2.105  0.0513 -0.0486  0.0428
  838SOL    HW1 2513   0.606   1.486   2.026  1.8996  0.6779  1.7485
  838SOL    HW2 2514   0.541   1.341   2.085  0.5919  0.3531  0.7624
  839SOL     OW 2515   0.104   0.089   0.259  0.1157 -0.2070 -0.4957
  839SOL    HW1 2516   0.019   0.113   0.204 -1.3287  1.7028 -0.6076
  839SOL    HW2 2517   0.119  -0.013   0.247 -0.5969 -0.5861 -1.5342
  840SOL     OW 2518   2.986   1.293   0.928  0.2509 -0.1958  0.3043
  840SOL    HW1 2519   3.006   1.265   0.834  0.1749 -0.6072 -1.5342
  840SOL    HW2 2520   2.975   1.205   0.977  0.7390 -0.5211  1.3010
  841SOL     OW 2521   2.746   2.185   0.518  0.3352  0.1664  0.5359
  841SOL    HW1 2522   2.766   2.111   0.586  1.9688  1.8480  1.9769
  841SOL    HW2 2523   2.796   2.159   0.430  1.8386 -0.8768  0.0427
  842SOL     OW 2524   1.060   1.663   0.831  0.0284 -0.4847  0.4363
  842SOL    HW1 2525   1.150   1.706   0.800 -1.1705  1.2157  2.4153
  842SOL    HW2 2526   1.074   1.563   0.844  0.0193  2.8757  1.2097
  843SOL     OW 2527   2.170   2.498   0.730 -0.4996 -0.4591  0.5319
  843SOL    HW1 2528   2.186   2.555   0.648 -0.5533  2.7072 -3.8783
  843SOL    HW2 2529   2.073   2.466   0.718  0.0867  1.8759 -0.6501
  844SOL     OW 2530   2.477   2.430   1.582 -0.1865 -0.6744 -1.0337
  844SOL    HW1 2531   2.415   2.505   1.545 -0.9447  0.1814  1.3000
  844SOL    HW2 2532   2.556   2.422   1.517 -0.0979  0.4788 -0.3869
  845SOL     OW 2533   2.289   0.517   1.036  0.1074 -0.0280  0.1602
  845SOL    HW1 2534   2.220   0.532   0.959 -3.0227 -2.3585  0.8628
  845SOL    HW2 2535   2.326   0.612   1.065  1.3062 -0.4068 -1.3645
  846SOL     OW 2536   1.662   1.783   1.183 -0.0413  0.2650 -0.3947
  846SOL    HW1 2537   1.625   1.869   1.235  0.4513  3.2425 -1.1349
  846SOL    HW2 2538   1.645   1.783   1.085 -0.4641 -0.5114 -1.8560
  847SOL     OW 2539   2.037   0.203   1.343  0.3357  0.1544  0.5274
  847SOL    HW1 2540   2.054   0.138   1.265 -1.2885  0.5912  0.3840
  847SOL    HW2 2541   2.082   0.294   1.319  2.6771 -1.7386 -0.3724
  848SOL     OW 2542   1.598   0.465   0.465  0.3703  0.6987 -0.0761
  848SOL    HW1 2543   1.657   0.462   0.380 -1.0825 -0.1815 -0.8248
  848SOL    HW2 2544   1.623   0.386   0.527 -0.6846 -2.2557  1.0677
  849SOL     OW 2545   1.714   0.897   1.280  0.3226  0.5830 -0.2248
  849SOL    HW1 2546   1.760   0.837   1.348 -0.4469 -1.1847 -0.9863
  849SOL    HW2 2547   1.781   0.961   1.238  5.3670  0.6795 -0.1177
  850SOL     OW 2548   3.035   3.009   1.294 -0.0940 -0.8720  0.1617
  850SOL    HW1 2549   3.091   3.091   1.313  0.1635  1.7266  1.0055
  850SOL    HW2 2550   2.942   3.030   1.325 -0.5040  1.5336 -1.3019
  851SOL     OW 2551   2.130   0.734   1.673  0.6081  0.5383  0.2414
  851SOL    HW1 2552   2.070   0.670   1.723 -0.3082 -0.2802 -2.3274
  851SOL    HW2 2553   2.082   0.822   1.657  1.4791  0.3004 -2.2748
  852SOL     OW 2554   1.471   1.501   1.420  0.4841  0.1193  0.3895
  852SOL    HW1 2555   1.399   1.440   1.387 -1.4893 -1.1298  1.5238
  852SOL    HW2 2556   1.453   1.601   1.394 -1.7877 -0.2891 -1.1592
  853SOL     OW 2557   1.795   3.056   3.014  0.2766 -0.5306  0.3920
  853SOL    HW1 2558   1.782   3.158   3.026  0.1338 -1.3048  1.8860
  853SOL    HW2 2559   1.736   3.011   2.943  1.8285  0.1131  0.3074
  854SOL     OW 2560   2.107   0.180   3.067 -0.3085  0.1539  0.0092
  854SOL    HW1 2561   2.163   0.256   3.109 -0.8777 -1.1604  0.5479
  854SOL    HW2 2562   2.013   0.222   3.058  1.1675 -2.0659  2.0719
  855SOL     OW 2563   2.757   2.599   0.603 -0.7851 -0.2740  0.0970
  855SOL    HW1 2564   2.735   2.645   0.692 -0.7350  0.5486 -0.8477
  855SOL    HW2 2565   2.695   2.639   0.532 -0.9039 -0.1898  2.3452
  856SOL     OW 2566   2.021   0.287   0.858 -0.2324 -0.5335 -0.0544
  856SOL    HW1 2567   2.072   0.372   0.880 -2.6200 -1.9443  0.4047
  856SOL    HW2 2568   1.920   0.302   0.869 -1.9745  1.9739  0.0931
  857SOL     OW 2569   1.697   3.090   1.975 -0.1915 -0.6616 -0.4980
  857SOL    HW1 2570   1.670   3.037   1.895  1.0552  0.6315  1.0550
  857SOL    HW2 2571   1.768   3.044   2.036 -1.1428 -2.0333 -0.2740
  858SOL     OW 2572   2.068   2.203   1.673  0.3725 -0.5237  0.1475
  858SOL    HW1 2573   2.136   2.233   1.606 -1.6828  0.6816  0.4182
  858SOL    HW2 2574   2.099   2.217   1.766  0.5781 -1.8205  3.1109
  859SOL     OW 2575   0.907   2.474   2.510 -0.4182  0.4458  0.5553
  859SOL    HW1 2576   0.983   2.453   2.441 -2.5109 -1.2858  1.2761
  859SOL    HW2 2577   0.846   2.555   2.495 -1.3452  0.8082 -0.0968
  860SOL     OW 2578   2.855   0.117   0.748 -0.0243 -1.0393 -0.5468
  860SOL    HW1 2579   2.779   0.172   0.718  2.9213  1.1253  0.7422
  860SOL    HW2 2580   2.936   0.179   0.747 -0.7956 -3.2913  0.1443
  861SOL     OW 2581   1.167   2.632   0.802 -0.2100 -0.7787  0.1508
  861SOL    HW1 2582   1.238   2.559   0.815  2.1940 -0.2186  1.8545
  861SOL    HW2 2583   1.182   2.714   0.858  1.8035  1.0883  1.5670
  862SOL     OW 2584   2.064   3.089   2.726 -0.1977 -0.6221 -0.3705
  862SOL    HW1 2585   2.096   3.075   2.629  3.2496 -2.8547 -2.7937
  862SOL    HW2 2586   2.123   3.162   2.768 -2.8202 -2.9728  0.5985
  863SOL     OW 2587   1.114   0.105   2.169  0.3057 -0.1288 -0.3953
  863SOL    HW1 2588   1.017   0.081   2.145 -2.0492  0.1522  0.8983
  863SOL    HW2 2589   1.144   0.057   2.257  0.5398  1.5549  0.2443
  864SOL     OW 2590   2.701   2.428   1.432  0.3144 -0.2921  0.5247
  864SOL    HW1 2591   2.704   2.354   1.367  0.2023  0.9250  0.5208
  864SOL    HW2 2592   2.771   2.495   1.405 -0.1280  1.0103 -2.1348
  865SOL     OW 2593   2.343   2.289   2.376  0.0378 -0.1237  0.4785
  865SOL    HW1 2594   2.343   2.268   2.474  2.0637  3.1589  1.8709
  865SOL    HW2 2595   2.422   2.241   2.328  0.7756 -2.7085  0.1769
  866SOL     OW 2596   0.162   2.676   2.875  0.7482  0.1172  0.4410
  866SOL    HW1 2597   0.098   2.640   2.803 -0.9488  1.4322 -0.1155
  866SOL    HW2 2598   0.229   2.604   2.906 -0.1445 -0.5594  1.0481
  867SOL     OW 2599   2.845   2.697   1.650  0.2630  0.5154 -0.1914
  867SOL    HW1 2600   2.759   2.755   1.646 -1.4262  2.4318 -0.5256
  867SOL    HW2 2601   2.817   2.604   1.680  1.6606  2.1976 -4.7328
  868SOL     OW 2602   1.077   2.725   0.565 -0.1284  0.5583  0.3428
  868SOL    HW1 2603   1.124   2.687   0.649  0.3935  0.4623  0.9163
  868SOL    HW2 2604   0.994   2.774   0.596 -1.2848  1.3704  0.3663
  869SOL     OW 2605   1.742   1.385   1.777  0.7172  0.4771  0.1913
  869SOL    HW1 2606   1.749   1.425   1.871 -0.5366 -0.0475  0.2135
  869SOL    HW2 2607   1.828   1.420   1.731 -0.7757  2.7574 -0.5668
  870SOL     OW 2608   1.934   2.712   1.355  0.4301  0.3301 -0.3970
  870SOL    HW1 2609   2.001   2.789   1.359  1.3520  0.6065  2.1265
  870SOL    HW2 2610   1.889   2.704   1.269  0.9501 -2.2304 -0.4225
  871SOL     OW 2611   0.375   1.640   1.279  0.2121  0.3389 -0.0618
  871SOL    HW1 2612   0.280   1.666   1.255 -0.1703 -0.8927  0.2108
  871SOL    HW2 2613   0.436   1.661   1.200  0.4432  0.2980  0.0175
  872SOL     OW 2614   1.629   0.000   0.975  0.4673  0.3386  0.4163
  872SOL    HW1 2615   1.592  -0.091   0.944 -0.4284  1.6483  0.4612
  872SOL    HW2 2616   1.551   0.067   0.982  2.3187  0.8568 -2.5410
  873SOL     OW 2617   2.254   2.565   2.446 -0.2673 -0.2784 -0.6578
  873SOL    HW1 2618   2.176   2.610   2.393 -1.7577  1.7275  0.4107
  873SOL    HW2 2619   2.262   2.468   2.420  2.1039 -2.0878 -0.5459
  874SOL     OW 2620   2.057   1.019   1.615 -0.2157  0.0074  0.5414
  874SOL    HW1 2621   1.977   1.062   1.561 -0.5285 -0.7052  0.5346
  874SOL    HW2 2622   2.086   1.063   1.704 -0.3718  1.4611 -2.6961
  875SOL     OW 2623   1.436   2.381   2.579 -0.6792  0.4463 -0.8413
  875SOL    HW1 2624   1.369   2.317   2.538  0.9486 -1.9469 -0.2254
  875SOL    HW2 2625   1.391   2.472   2.587 -1.5576  0.7672 -0.9843
  876SOL     OW 2626   1.323   0.742   0.673  0.2734  0.5534 -0.1250
  876SOL    HW1 2627   1.361   0.688   0.747  4.7031 -1.2925 -1.6604
  876SOL    HW2 2628   1.218   0.735   0.680 -3.1064  1.3870 -0.5870
  877SOL     OW 2629   0.428   2.603   1.728 -0.0126  0.9811 -0.5085
  877SOL    HW1 2630   0.446   2.518   1.784 -0.7662 -0.1202 -1.1137
  877SOL    HW2 2631   0.348   2.655   1.762 -1.0885 -0.6658 -0.1717
  878SOL     OW 2632   1.839   1.816   2.432 -0.1095 -0.0100  0.0259
  878SOL    HW1 2633   1.821   1.907   2.473  2.0066  2.1689  1.0799
  878SOL    HW2 2634   1.772   1.797   2.356 -1.7634  0.9762  0.0478
  879SOL     OW 2635   2.116   1.854   2.490  0.4070  0.2745 -0.1696
  879SOL    HW1 2636   2.100   1.891   2.585 -1.0959 -1.3949  3.6884
  879SOL    HW2 2637   2.028   1.833   2.442  1.9790 -0.9671 -0.3645
  880SOL     OW 2638   1.053   0.717   0.708 -0.5838  0.1735  0.3544
  880SOL    HW1 2639   0.987   0.649   0.740  1.8550 -0.3536 -0.4401
  880SOL    HW2 2640   1.055   0.802   0.770  2.6105  0.7216  0.6876
  881SOL     OW 2641   0.348   1.185   3.087 -0.5452 -0.0713  0.1925
  881SOL    HW1 2642   0.308   1.155   2.996 -0.9769 -0.9709  1.2801
  881SOL    HW2 2643   0.382   1.101   3.137 -1.3891  0.5811  1.3149
  882SOL     OW 2644   0.926   0.099   0.908 -0.2300  0.0197  0.1799
  882SOL    HW1 2645   0.966   0.177   0.851  0.5981 -0.2583  2.6361
  882SOL    HW2 2646   0.878   0.033   0.844  0.2936  0.5235  0.8064
  883SOL     OW 2647   2.223   0.417   1.291  0.1130 -0.2319 -0.4963
  883SOL    HW1 2648   2.306   0.416   1.350 -1.4660  1.9184 -0.7755
  883SOL    HW2 2649   2.251   0.434   1.196 -2.7961  1.9520  1.7592
  884SOL     OW 2650   0.170   1.103   0.971  0.3522  0.1966  0.3126
  884SOL    HW1 2651   0.073   1.121   1.009 -0.6896  0.1233  1.2671
  884SOL    HW2 2652   0.234   1.117   1.051  0.6812  1.1493 -0.3637
  885SOL     OW 2653   0.342   2.188   0.420  0.0571 -0.4002 -0.0774
  885SOL    HW1 2654   0.439   2.165   0.436  0.4871 -1.3181  0.6529
  885SOL    HW2 2655   0.315   2.177   0.321  1.3310 -1.3264  0.2352
  886SOL     OW 2656   1.428   1.037   0.658 -0.6352  0.5992  0.3508
  886SOL    HW1 2657   1.341   1.001   0.626  0.0084  0.7615 -0.2850
  886SOL    HW2 2658   1.424   1.044   0.759  0.5744  2.5558  1.3598
  887SOL     OW 2659   1.171   0.398   1.257 -1.0454  0.2850  0.5348
  887SOL    HW1 2660   1.202   0.467   1.192 -0.1268  2.6928 -0.6094
  887SOL    HW2 2661   1.239   0.318   1.263 -1.9330 -0.6841 -2.2920
  888SOL     OW 2662   2.991   1.984   1.242 -0.0484  0.3923  0.3494
  888SOL    HW1 2663   3.074   2.024   1.292 -1.3639  1.4435  0.3663
  888SOL    HW2 2664   3.003   1.976   1.136  2.5053 -0.3815 -1.2051
  889SOL     OW 2665   0.065   2.451   0.000 -0.6202 -0.0938 -0.1406
  889SOL    HW1 2666   0.166   2.461  -0.031 -0.1474  1.3732  0.7850
  889SOL    HW2 2667   0.053   2.483   0.095 -0.0252 -1.5658 -0.5180
  890SOL     OW 2668   0.343   1.621   2.210 -0.0760  0.2169  0.3163
  890SOL    HW1 2669   0.390   1.709   2.222  3.1890  0.0012 -0.9249
  890SOL    HW2 2670   0.403   1.555   2.162  1.4109 -3.4544 -0.7374
  891SOL     OW 2671   3.016   0.717   0.219  0.4796 -0.5353  0.1873
  891SOL    HW1 2672   3.074   0.779   0.169  0.0656 -1.7865  1.9411
  891SOL    HW2 2673   3.003   0.746   0.318 -2.7464  1.8057 -0.5759
  892SOL     OW 2674   0.320   1.750   1.522  0.5544 -0.4170  0.1980
  892SOL    HW1 2675   0.228   1.798   1.531 -4.2035  0.6031  0.8494
  892SOL    HW2 2676   0.332   1.706   1.431 -0.8198 -0.8177  2.2115
  893SOL     OW 2677   2.901   0.510   0.991 -0.0778  0.8959  0.2683
  893SOL    HW1 2678   2.967   0.505   1.067 -0.2809 -0.2915  1.7121
  893SOL    HW2 2679   2.946   0.561   0.913 -0.6984  0.2212  1.6594
  894SOL     OW 2680   0.334   2.260   0.940 -0.1094  0.8477  0.1852
  894SOL    HW1 2681   0.329   2.241   0.845 -4.3914  2.8449 -0.0714
  894SOL    HW2 2682   0.271   2.194   0.995  0.0307  0.8509  2.3767
  895SOL     OW 2683   1.002   2.701   1.489  0.3226 -0.4803  0.4973
  895SOL    HW1 2684   1.084   2.707   1.556  1.4001  0.0010  0.8932
  895SOL    HW2 2685   0.983   2.801   1.462 -2.1579  0.3007 -2.1568
  896SOL     OW 2686   1.187   0.700   0.218  0.8866  0.4256 -0.8425
  896SOL    HW1 2687   1.256   0.663   0.283  0.4304  0.1508 -0.5878
  896SOL    HW2 2688   1.208   0.666   0.119  3.0097  0.1369 -0.2278
  897SOL     OW 2689   1.299   0.892   1.134 -0.1731  0.3363  0.1141
  897SOL    HW1 2690   1.367   0.939   1.191  1.5656  2.1782 -0.7670
  897SOL    HW2 2691   1.210   0.936   1.146  1.4514  1.1085  1.8014
  898SOL     OW 2692   1.132   1.054   0.475  0.3282  0.5326  0.1610
  898SOL    HW1 2693   1.219   1.045   0.423  1.2358  1.0609 -1.1193
  898SOL    HW2 2694   1.137   1.124   0.550 -1.1381 -0.5607 -1.6180
  899SOL     OW 2695   1.658   0.553   3.042  0.1727  0.0836 -0.2642
  899SOL    HW1 2696   1.618   0.473   3.085  0.1689 -0.1662 -0.0699
  899SOL    HW2 2697   1.755   0.542   3.033  0.8768  0.5440  2.4610
  900SOL     OW 2698   0.567   0.566   2.331  0.2609  0.3976  0.0817
  900SOL    HW1 2699   0.629   0.562   2.413 -2.0420  1.1893 -0.4848
  900SOL    HW2 2700   0.514   0.478   2.318 -0.9635  0.1522  1.6649
  901SOL     OW 2701   0.700   1.010   0.191 -0.1679  0.1300  0.2271
  901SOL    HW1 2702   0.706   1.113   0.193 -0.5122 -1.7515  0.6293
  901SOL    HW2 2703   0.781   0.971   0.242  0.5646  0.3496  3.2307
  902SOL     OW 2704   1.251   0.156   0.444  0.1173 -0.4467 -0.0067
  902SOL    HW1 2705   1.214   0.249   0.429 -1.7195  1.9114 -0.1087
  902SOL    HW2 2706   1.168   0.094   0.462  1.5333 -0.3368 -0.0207
  903SOL     OW 2707   2.682   2.763   2.557 -0.4521 -0.1564  0.2004
  903SOL    HW1 2708   2.772   2.726   2.515 -0.3529  1.0761  4.7036
  903SOL    HW2 2709   2.609   2.731   2.495 -0.4392  2.7282  0.4941
  904SOL     OW 2710   1.669   0.914   0.614 -0.0047  0.3832 -0.1305
  904SOL    HW1 2711   1.575   0.957   0.627 -0.1027 -3.0662  1.2185
  904SOL    HW2 2712   1.659   0.812   0.628  0.4271 -1.3205 -1.0204
  905SOL     OW 2713   2.316   0.069   0.972 -0.0139 -0.8651 -0.7200
  905SOL    HW1 2714   2.367   0.149   0.999  0.2860 -1.6913  0.8665
  905SOL    HW2 2715   2.276   0.086   0.880 -1.1447  1.3117  2.3372
  906SOL     OW 2716   1.765   2.229   0.426 -0.4123 -0.0909  0.2798
  906SOL    HW1 2717   1.700   2.310   0.412  1.2118  0.0552  1.9350
  906SOL    HW2 2718   1.723   2.177   0.502 -1.8203  0.9133 -2.1592
  907SOL     OW 2719   2.337   0.622   2.776  0.5883  0.2240 -0.3659
  907SOL    HW1 2720   2.386   0.585   2.696  1.2404  0.5896 -1.8458
  907SOL    HW2 2721   2.238   0.630   2.748  2.0432 -0.0601  1.3479
  908SOL     OW 2722   0.403   0.150   2.330  0.2956  0.0111 -0.5943
  908SOL    HW1 2723   0.317   0.194   2.289 -2.1070 -0.1810 -0.9402
  908SOL    HW2 2724   0.442   0.210   2.401 -1.8231 -0.4288 -1.1851
  909SOL     OW 2725   2.090   2.806   0.379  0.6734  0.5825 -0.2599
  909SOL    HW1 2726   2.140   2.841   0.301  0.0275  2.4373 -0.0927
  909SOL    HW2 2727   1.991   2.788   0.350 -0.9731  2.5007 -0.4207
  910SOL     OW 2728   2.303   0.142   2.339  0.1913  0.1988 -0.1615
  910SOL    HW1 2729   2.287   0.190   2.425  1.3179  0.5888  1.4025
  910SOL    HW2 2730   2.236   0.174   2.269  1.8712 -2.0745 -1.1675
  911SOL     OW 2731   1.347   2.462   2.207 -0.5277  0.0924  0.1752
  911SOL    HW1 2732   1.381   2.540   2.261  2.1147 -0.6500 -1.1290
  911SOL    HW2 2733   1.333   2.484   2.112  0.2130  1.3456  0.6643
  912SOL     OW 2734   1.788   1.363   0.926  0.7062 -0.3855 -0.3715
  912SOL    HW1 2735   1.768   1.265   0.938 -0.9804  1.3329 -2.1469
  912SOL    HW2 2736   1.856   1.389   0.996  0.6892 -1.0543 -2.5097
  913SOL     OW 2737   2.891   0.237   1.745  0.3322 -0.0695  0.2255
  913SOL    HW1 2738   2.816   0.181   1.702  1.9678 -2.0867  0.2570
  913SOL    HW2 2739   2.976   0.213   1.700  2.5131 -0.0203  1.3317
  914SOL     OW 2740   1.687   0.776   2.178  0.1511  0.4229  0.1687
  914SOL    HW1 2741   1.722   0.830   2.098  0.1051 -2.6210 -1.8696
  914SOL    HW2 2742   1.760   0.712   2.214  2.6864 -0.9167  2.1762
  915SOL     OW 2743   2.849   1.331   1.805  0.0663  0.5431  0.0030
  915SOL    HW1 2744   2.933   1.269   1.809 -1.5271 -3.3579 -0.9678
  915SOL    HW2 2745   2.866   1.412   1.860 -2.0920  2.5142 -0.0052
  916SOL     OW 2746   1.227   2.825   0.984  0.0215 -0.1059 -1.0033
  916SOL    HW1 2747   1.253   2.922   0.970  0.2990 -0.4118  1.0283
  916SOL    HW2 2748   1.263   2.790   1.076  0.6748  1.4080 -2.7311
  917SOL     OW 2749   1.888   2.659   0.055 -0.4186 -0.3347 -0.9325
  917SOL    HW1 2750   1.943   2.691  -0.022  0.3275 -0.1190 -0.0699
  917SOL    HW2 2751   1.895   2.723   0.139 -0.1081 -0.4500  0.8754
  918SOL     OW 2752   2.120   1.738   0.195  1.0125  0.2792  0.3940
  918SOL    HW1 2753   2.109   1.672   0.112  0.3925  0.4621  0.7974
  918SOL    HW2 2754   2.039   1.745   0.257  0.9475  0.4339 -0.0920
  919SOL     OW 2755   1.171   0.065   1.058 -0.4013  0.0561 -0.1946
  919SOL    HW1 2756   1.085   0.068   0.999 -1.5452 -0.5458  1.2110
  919SOL    HW2 2757   1.245   0.042   0.996  0.3952 -0.1431  2.1787
  920SOL     OW 2758   2.939   0.707   2.494 -0.0865  0.4424  0.1663
  920SOL    HW1 2759   2.864   0.664   2.551 -0.7285 -1.8871 -1.4575
  920SOL    HW2 2760   2.958   0.649   2.413  1.3227  2.4436  1.2188
  921SOL     OW 2761   2.414   2.056   1.900  1.0057 -0.6231 -0.6529
  921SOL    HW1 2762   2.459   2.014   1.982 -0.6671 -1.1629 -0.8806
  921SOL    HW2 2763   2.421   1.988   1.824  2.8907 -0.3316 -0.9925
  922SOL     OW 2764   2.415   2.906   0.958 -0.3309  0.5139  0.3055
  922SOL    HW1 2765   2.378   3.001   0.950  1.3106  2.2593 -3.2109
  922SOL    HW2 2766   2.419   2.864   0.867 -0.0475 -0.3239 -1.8201
  923SOL     OW 2767   0.630   2.196   0.405 -0.5869 -0.0613  0.4522
  923SOL    HW1 2768   0.635   2.097   0.440  0.1146  1.3725 -1.7219
  923SOL    HW2 2769   0.649   2.267   0.476  1.7053 -0.5401  0.0943
  924SOL     OW 2770   1.289   1.524   1.018 -0.0495 -0.6005  0.3057
  924SOL    HW1 2771   1.290   1.604   1.086  2.9502 -0.7576  0.3770
  924SOL    HW2 2772   1.377   1.524   0.966 -0.9121  2.0149  0.6225
  925SOL     OW 2773   2.482   1.082   0.323  0.4263 -0.3919 -0.5519
  925SOL    HW1 2774   2.534   1.164   0.291  2.5061  2.6537  1.3441
  925SOL    HW2 2775   2.388   1.076   0.285  0.3228 -0.1353  0.9884
  926SOL     OW 2776   0.867   0.102   1.174 -0.2714  0.1263  0.5641
  926SOL    HW1 2777   0.837   0.008   1.200  0.7039 -0.1428  0.6516
  926SOL    HW2 2778   0.894   0.103   1.078 -3.2510 -1.1933  1.9911
  927SOL     OW 2779   0.760   1.956   0.134  0.0690 -0.0432 -0.8554
  927SOL    HW1 2780   0.707   1.878   0.168 -0.0754  2.1308 -0.7798
  927SOL    HW2 2781   0.779   1.943   0.034 -0.1963 -0.2625 -0.5364
  928SOL     OW 2782   0.570   0.111   2.708 -0.1987 -0.5680 -0.3953
  928SOL    HW1 2783   0.641   0.072   2.769 -2.6361  1.8852  1.4114
  928SOL    HW2 2784   0.506   0.035   2.683  2.0880 -0.2412  1.6198
  929SOL     OW 2785   2.240   1.786   0.984 -0.2418 -0.4340 -0.7569
  929SOL    HW1 2786   2.242   1.839   1.072  1.0427  1.4853 -0.3774
  929SOL    HW2 2787   2.234   1.686   0.998 -1.4223 -0.5721  0.3964
  930SOL     OW 2788   0.978   2.996   2.804  0.5922  0.1853 -0.4610
  930SOL    HW1 2789   1.070   3.041   2.795 -0.3683  2.1995 -1.5095
  930SOL    HW2 2790   0.987   2.913   2.858 -0.9953  0.8492 -1.0342
  931SOL     OW 2791   1.972   0.826   2.855  0.0676  0.4504 -0.0168
  931SOL    HW1 2792   2.020   0.804   2.938  1.6768  2.7208 -2.0615
  931SOL    HW2 2793   1.889   0.767   2.846 -0.7495  3.8031  1.0466
  932SOL     OW 2794   2.374   2.513   0.382  0.5051 -0.2898  0.2206
  932SOL    HW1 2795   2.277   2.513   0.413 -3.8335 -1.5309  2.0029
  932SOL    HW2 2796   2.425   2.433   0.420 -0.6085 -2.2147  0.1402
  933SOL     OW 2797   3.057   2.329   1.108 -0.4738  0.5102  0.0815
  933SOL    HW1 2798   2.959   2.324   1.076 -0.4908 -0.0887  1.9380
  933SOL    HW2 2799   3.085   2.424   1.105 -1.2938  0.7146 -0.1143
  934SOL     OW 2800   2.577   0.904   2.583  0.6904  0.3205  0.8856
  934SOL    HW1 2801   2.608   0.820   2.636  3.0157 -0.0906  1.7973
  934SOL    HW2 2802   2.484   0.890   2.540  1.9989  2.8707  0.3778
  935SOL     OW 2803   0.025   1.136   1.509 -0.1464 -0.4694  0.1352
  935SOL    HW1 2804   0.118   1.104   1.481  0.5708 -3.4813  1.5964
  935SOL    HW2 2805   0.012   1.233   1.475 -0.6059 -0.7652  2.0040
  936SOL     OW 2806   0.293   2.924   2.890  0.3192 -0.2694 -0.5262
  936SOL    HW1 2807   0.234   3.009   2.895 -1.0520 -0.8325 -0.7556
  936SOL    HW2 2808   0.243   2.835   2.888  2.7443 -1.8031  1.2159
  937SOL     OW 2809   3.082   0.207   1.532 -0.0858 -0.1544  0.6586
  937SOL    HW1 2810   2.992   0.187   1.488 -1.0685 -1.1709 -1.5783
  937SOL    HW2 2811   3.162   0.160   1.487  0.6676 -2.7223  3.6462
  938SOL     OW 2812   1.537   1.934   2.936  0.1482  0.2079  0.4875
  938SOL    HW1 2813   1.589   2.022   2.933 -2.1447 -0.1676 -2.7118
  938SOL    HW2 2814   1.593   1.849   2.916 -0.9894  1.1787  0.7864
  939SOL     OW 2815   1.720   0.359   1.617 -0.0325 -0.8441  0.8950
  939SOL    HW1 2816   1.810   0.315   1.648 -2.2151 -0.3651 -0.5855
  939SOL    HW2 2817   1.739   0.426   1.538  0.8674  0.3891  2.2645
  940SOL     OW 2818   1.997   2.917   1.780  0.3952  0.5227  0.0096
  940SOL    HW1 2819   1.950   2.826   1.781 -2.3402  0.3157 -1.9414
  940SOL    HW2 2820   1.939   2.993   1.751  2.4283 -1.0051  1.2641
  941SOL     OW 2821   3.060   0.140   1.088 -0.4074  0.0338  0.1053
  941SOL    HW1 2822   3.133   0.114   1.025  0.4387  1.6976 -0.2058
  941SOL    HW2 2823   2.982   0.085   1.063 -0.4382  0.1343 -1.3638
  942SOL     OW 2824   1.809   2.730   1.117  0.1194 -0.0220  0.1683
  942SOL    HW1 2825   1.901   2.715   1.075  1.5995 -1.1042 -0.6079
  942SOL    HW2 2826   1.730   2.688   1.069 -2.1483  0.7986  0.9755
  943SOL     OW 2827   1.797   1.202   2.176  0.2618 -0.0001  0.3121
  943SOL    HW1 2828   1.766   1.157   2.089 -2.4194  2.1989 -0.1744
  943SOL    HW2 2829   1.885   1.163   2.214  6.4579 -0.6849  2.4061
  944SOL     OW 2830   2.239   0.906   2.509  0.3713 -0.2529 -0.0883
  944SOL    HW1 2831   2.290   0.867   2.429 -0.1141 -0.1205 -1.2084
  944SOL    HW2 2832   2.205   1.002   2.488  0.3431 -2.1001 -2.7708
  945SOL     OW 2833   3.038   1.690   0.078  0.5003  0.3652  0.0663
  945SOL    HW1 2834   3.102   1.767   0.058 -2.4786  0.5894  0.2681
  945SOL    HW2 2835   3.066   1.631   0.160  1.9546  1.1791  1.6707
  946SOL     OW 2836   2.985   1.958   0.969  0.0207  0.0547  0.3874
  946SOL    HW1 2837   3.007   1.876   0.911  0.1537 -0.5342 -0.2188
  946SOL    HW2 2838   2.891   1.996   0.961  2.6527 -0.7364 -0.5108
  947SOL     OW 2839   0.485   1.221   2.483  0.1957  0.3917  0.1746
  947SOL    HW1 2840   0.499   1.317   2.512 -0.5909  0.5671  0.5750
  947SOL    HW2 2841   0.570   1.191   2.429 -0.2322  1.2096 -2.6087
  948SOL     OW 2842   2.438   1.698   0.534 -0.3950 -0.0577 -0.0197
  948SOL    HW1 2843   2.380   1.614   0.543 -2.7095  0.4666 -1.2471
  948SOL    HW2 2844   2.395   1.757   0.466  0.0668  2.5400 -0.0888
  949SOL     OW 2845   0.023   0.924   0.040  0.1807  0.2817 -0.4645
  949SOL    HW1 2846   0.096   0.863   0.001  1.1044 -0.1054 -1.3328
  949SOL    HW2 2847  -0.039   0.956  -0.039 -1.3552 -0.4508 -1.1265
  950SOL     OW 2848   2.935   2.969   2.272 -0.0923 -0.3511 -0.1847
  950SOL    HW1 2849   3.016   3.034   2.271  1.3697 -1.8115 -1.2574
  950SOL    HW2 2850   2.956   2.872   2.247  0.5170  1.0273 -0.6546
  951SOL     OW 2851   2.520   2.355   2.855  0.4156 -0.5772  0.2098
  951SOL    HW1 2852   2.537   2.372   2.953  2.4806 -1.1404  1.4595
  951SOL    HW2 2853   2.564   2.431   2.803  1.1845  2.1349 -1.4030
  952SOL     OW 2854   0.479   2.671   0.411  0.2178 -0.3351  0.5865
  952SOL    HW1 2855   0.576   2.645   0.436 -3.1604 -1.7301 -0.5116
  952SOL    HW2 2856   0.471   2.741   0.334  0.6478 -1.2440  1.7191
  953SOL     OW 2857   2.624   1.264   2.498 -0.4464 -0.3274  0.1132
  953SOL    HW1 2858   2.641   1.200   2.421 -1.6371 -0.2086  2.1432
  953SOL    HW2 2859   2.712   1.286   2.546  2.1991  4.0716 -0.8719
  954SOL     OW 2860   0.403   2.957   0.749 -0.0150  0.2833  0.1323
  954SOL    HW1 2861   0.414   2.908   0.838  0.3362  0.1814 -0.0002
  954SOL    HW2 2862   0.314   3.016   0.755 -0.1120  0.1054 -0.9875
  955SOL     OW 2863   0.446   1.477   0.738 -0.5435  0.6182  0.2098
  955SOL    HW1 2864   0.425   1.423   0.825 -3.0361  1.3686  1.6894
  955SOL    HW2 2865   0.510   1.424   0.673 -1.8704  2.2014  2.5983
  956SOL     OW 2866   2.739   0.666   2.029 -0.2587 -0.5811  0.0973
  956SOL    HW1 2867   2.735   0.587   1.970  2.0822 -1.4333 -1.6345
  956SOL    HW2 2868   2.836   0.700   2.036  0.3248 -0.5033  0.2487
  957SOL     OW 2869   1.500   1.606   2.241 -0.0169 -0.3226  0.4210
  957SOL    HW1 2870   1.580   1.663   2.229  0.5581 -0.6935  0.7113
  957SOL    HW2 2871   1.512   1.566   2.336 -2.1874 -1.2079  2.5946
  958SOL     OW 2872   2.765   0.468   1.828  0.3390  0.2561  0.6822
  958SOL    HW1 2873   2.814   0.389   1.789 -0.0698 -0.5674  1.5338
  958SOL    HW2 2874   2.667   0.468   1.798  1.5212  1.3620 -0.8399
  959SOL     OW 2875   1.469   2.354   1.528 -0.3073  0.0455 -0.0632
  959SOL    HW1 2876   1.426   2.291   1.458 -1.2487  1.6090  0.3348
  959SOL    HW2 2877   1.559   2.389   1.498  2.0483  0.4261 -0.2789
  960SOL     OW 2878   0.386   1.614   3.002 -0.7201 -0.8076  0.4894
  960SOL    HW1 2879   0.406   1.710   3.032  2.5305  0.6541 -1.6378
  960SOL    HW2 2880   0.384   1.551   3.082  1.7651 -1.4797  3.1875
  961SOL     OW 2881   3.009   1.307   2.969 -0.1153  0.3809 -0.3082
  961SOL    HW1 2882   2.915   1.349   2.956  1.1525  0.3419  0.3626
  961SOL    HW2 2883   3.054   1.345   3.053  0.7788 -2.6815 -1.3077
  962SOL     OW 2884   1.360   2.450   0.795 -0.3630  0.4043 -0.2297
  962SOL    HW1 2885   1.383   2.437   0.692 -0.4990  1.2105 -0.0428
  962SOL    HW2 2886   1.371   2.367   0.852 -0.9496  0.1403  0.2612
  963SOL     OW 2887   0.262   1.762   0.907 -0.0437 -0.2815  0.5213
  963SOL    HW1 2888   0.337   1.759   0.976  1.3785  1.6908 -0.5083
  963SOL    HW2 2889   0.173   1.723   0.942  3.2275 -0.6555  0.9653
  964SOL     OW 2890   0.685   2.676   2.170  0.2224  0.2038 -0.2828
  964SOL    HW1 2891   0.739   2.733   2.102 -0.3220  1.2044  0.1884
  964SOL    HW2 2892   0.587   2.701   2.172 -0.4742  5.2522 -1.0160
  965SOL     OW 2893   0.444   1.874   2.246  0.2879  0.0424  0.7969
  965SOL    HW1 2894   0.436   1.921   2.157  0.1911  2.0557 -0.2398
  965SOL    HW2 2895   0.462   1.943   2.321 -2.6535  3.4641  0.3314
  966SOL     OW 2896   0.702   1.535   0.447  0.1734 -0.2959  0.0312
  966SOL    HW1 2897   0.793   1.576   0.463 -0.7929  0.6781 -1.4795
  966SOL    HW2 2898   0.698   1.452   0.509  1.0895  2.2707 -0.2853
  967SOL     OW 2899   1.693   1.783   2.190  0.4975 -0.1146 -0.3767
  967SOL    HW1 2900   1.626   1.846   2.143  2.3073  0.0569 -2.1457
  967SOL    HW2 2901   1.751   1.738   2.122 -0.1608  2.7357 -0.8690
  968SOL     OW 2902   1.171   1.692   0.386  0.1391 -0.3085  0.5475
  968SOL    HW1 2903   1.268   1.715   0.419 -2.7003 -1.7637  1.1577
  968SOL    HW2 2904   1.154   1.724   0.292  0.7849 -0.1163  3.6327
  969SOL     OW 2905   2.578   0.315   2.048 -0.4710  0.4733  0.3273
  969SOL    HW1 2906   2.657   0.313   2.115 -1.4697 -0.4561 -0.1656
  969SOL    HW2 2907   2.588   0.397   1.986  2.0626 -0.7093 -0.8074
  970SOL     OW 2908   2.649   0.509   3.040 -0.5388  0.1574 -0.6956
  970SOL    HW1 2909   2.725   0.573   3.080  2.0348 -0.0036  1.1824
  970SOL    HW2 2910   2.558   0.555   3.046  2.2682  2.2863  2.0989
  971SOL     OW 2911   1.320   2.547   1.937 -0.3920  0.4167  0.1121
  971SOL    HW1 2912   1.372   2.628   1.907  2.0192 -0.2311  1.1978
  971SOL    HW2 2913   1.221   2.558   1.912 -0.7535  2.4750 -0.2776
  972SOL     OW 2914   0.285   0.632   2.927 -0.1675 -0.0746 -0.8735
  972SOL    HW1 2915   0.335   0.626   2.837  3.4512  1.6191 -0.1534
  972SOL    HW2 2916   0.349   0.670   3.000  2.2682  0.4606  1.6515
  973SOL     OW 2917   0.568   0.272   0.870 -0.4566  0.3068  0.4985
  973SOL    HW1 2918   0.514   0.360   0.873  1.1842 -2.2891 -2.1937
  973SOL    HW2 2919   0.650   0.291   0.815 -0.6330  0.3375 -0.3080
  974SOL     OW 2920   3.022   2.241   2.123  0.2195 -0.3628 -0.2583
  974SOL    HW1 2921   2.952   2.174   2.094  2.6628 -0.6804  0.7831
  974SOL    HW2 2922   2.990   2.296   2.204 -0.4164  1.4087  1.5181
  975SOL     OW 2923   2.777   2.791   0.794 -0.0872  0.0260  0.5323
  975SOL    HW1 2924   2.776   2.841   0.704 -1.2818  1.8361  1.6198
  975SOL    HW2 2925   2.878   2.790   0.820  1.7132 -0.2448  0.4370
  976SOL     OW 2926   0.578   1.461   1.437  0.5697  0.1771 -0.1938
  976SOL    HW1 2927   0.528   1.373   1.461  2.6173  0.4548 -0.0193
  976SOL    HW2 2928   0.525   1.514   1.377  1.3679 -0.2446 -2.0218
  977SOL     OW 2929   1.161   1.173   0.177 -0.7693  0.5094 -0.1406
  977SOL    HW1 2930   1.169   1.274   0.161  0.0404 -1.7948  0.2504
  977SOL    HW2 2931   1.237   1.132   0.228 -1.3688 -0.0770  0.3676
  978SOL     OW 2932   0.172   0.083   2.647  0.3984 -0.0790 -0.2152
  978SOL    HW1 2933   0.146   0.184   2.650 -1.8170 -0.6855  1.6557
  978SOL    HW2 2934   0.163   0.041   2.741 -0.4520  1.2047 -0.7469
  979SOL     OW 2935   1.878   1.367   0.136 -0.3037  0.4856 -0.1730
  979SOL    HW1 2936   1.962   1.375   0.192 -1.6904 -0.5038  1.9721
  979SOL    HW2 2937   1.827   1.280   0.153 -1.3459 -1.9036 -2.2796
  980SOL     OW 2938   0.281   2.250   1.721  0.1785  0.7404  0.0640
  980SOL    HW1 2939   0.193   2.265   1.771  0.0872  1.1509 -2.2464
  980SOL    HW2 2940   0.357   2.315   1.758  1.6266 -0.2062  1.8694
  981SOL     OW 2941   2.834   1.018   2.683 -0.1410 -0.6504 -0.0008
  981SOL    HW1 2942   2.762   0.956   2.638 -1.2523 -2.3727  1.4874
  981SOL    HW2 2943   2.845   1.113   2.640 -2.0925 -0.6189  1.1310
  982SOL     OW 2944   0.180   2.101   2.465  0.1631 -0.0326 -0.7210
  982SOL    HW1 2945   0.185   2.189   2.415  2.2438  1.7500  1.0188
  982SOL    HW2 2946   0.137   2.118   2.555 -4.2035  0.3667 -1.0424
  983SOL     OW 2947   1.201   0.347   2.377  0.1896 -0.2782  0.0746
  983SOL    HW1 2948   1.216   0.383   2.284  0.0060  2.6031 -1.6932
  983SOL    HW2 2949   1.294   0.335   2.426  1.7005  1.1954 -1.0514
  984SOL     OW 2950   2.884   3.057   2.821 -0.3198  0.1804 -0.2797
  984SOL    HW1 2951   2.905   3.163   2.813 -1.3497 -2.0884 -0.4858
  984SOL    HW2 2952   2.791   3.050   2.780 -0.6843 -1.6674 -2.0246
  985SOL     OW 2953   1.910   1.147   1.436 -0.4275 -0.4497 -0.4888
  985SOL    HW1 2954   1.912   1.108   1.340 -0.3460  0.7874 -1.8216
  985SOL    HW2 2955   1.831   1.206   1.453 -0.5366  0.3483  2.0013
  986SOL     OW 2956   1.903   0.943   0.754  0.0932  0.3646 -0.8276
  986SOL    HW1 2957   1.824   0.934   0.688  0.6083 -0.7248  0.5716
  986SOL    HW2 2958   1.953   1.027   0.731  0.4208  0.5860 -0.8038
  987SOL     OW 2959   0.034   2.303   1.868  0.7557 -0.0307 -0.2602
  987SOL    HW1 2960  -0.033   2.330   1.798 -0.8115  1.0041  0.5397
  987SOL    HW2 2961  -0.016   2.266   1.948  3.7284  0.1088  1.5876
  988SOL     OW 2962   0.041   3.072   1.968 -0.3265  0.0266 -0.1113
  988SOL    HW1 2963   0.017   2.998   1.902  1.7789 -1.6064  0.1368
  988SOL    HW2 2964   0.120   3.132   1.936 -1.9803 -2.1048 -2.2365
  989SOL     OW 2965   2.399   0.117   0.342 -0.0602 -0.4100  0.1186
  989SOL    HW1 2966   2.454   0.148   0.261 -1.3356 -0.1823 -0.0898
  989SOL    HW2 2967   2.310   0.085   0.305 -0.6867  1.0443  1.2694
  990SOL     OW 2968   2.720   1.469   0.152 -0.3902  0.2505  0.3236
  990SOL    HW1 2969   2.741   1.455   0.052 -1.1375  0.9663  1.4043
  990SOL    HW2 2970   2.686   1.563   0.174  0.6764  1.9464 -0.9524
  991SOL     OW 2971   0.679   1.741   2.832  0.3114 -0.2064 -0.5727
  991SOL    HW1 2972   0.629   1.667   2.886 -0.2258  0.0719 -1.8386
  991SOL    HW2 2973   0.727   1.806   2.893  0.6383  2.0241  4.2111
  992SOL     OW 2974   1.398   1.755   1.377 -0.1748  0.3655  0.1774
  992SOL    HW1 2975   1.358   1.751   1.283 -1.6748 -1.6497 -0.2959
  992SOL    HW2 2976   1.469   1.824   1.371 -1.3304 -0.3653 -0.1870
  993SOL     OW 2977   0.434   2.756   0.951 -0.3873 -0.1757 -1.0767
  993SOL    HW1 2978   0.529   2.733   0.924  0.0670 -1.1901 -1.0517
  993SOL    HW2 2979   0.383   2.671   0.972  0.8114 -1.1859  0.7113
  994SOL     OW 2980   0.651   1.919   1.117  0.4065  0.0565  0.2319
  994SOL    HW1 2981   0.717   1.964   1.058  1.3743  0.0540  0.2507
  994SOL    HW2 2982   0.698   1.899   1.207 -2.4730  1.3676 -0.3677
  995SOL     OW 2983   1.502   0.377   2.256  0.1432  0.2471  0.0868
  995SOL    HW1 2984   1.488   0.360   2.359 -3.8159 -0.4921 -0.7169
  995SOL    HW2 2985   1.421   0.426   2.218 -0.2141 -1.1725 -0.5152
  996SOL     OW 2986   2.378   1.873   0.759 -0.5219 -0.1471 -0.0937
  996SOL    HW1 2987   2.433   1.809   0.699 -0.8378 -1.6277  3.2384
  996SOL    HW2 2988   2.341   1.830   0.844  3.3634  0.2953  2.5937
  997SOL     OW 2989   1.402   2.196   2.157  0.1100 -0.3977  0.0409
  997SOL    HW1 2990   1.405   2.174   2.058 -3.1710  0.0465  0.9129
  997SOL    HW2 2991   1.367   2.292   2.178 -0.5648  2.0090 -1.6037
  998SOL     OW 2992   0.515   0.301   2.519  0.3247  0.1653 -0.0557
  998SOL    HW1 2993   0.557   0.249   2.593 -2.4762 -1.7174 -1.1106
  998SOL    HW2 2994   0.475   0.384   2.555  0.5231  1.8173 -1.3063
  999SOL     OW 2995   1.313   0.415   2.888  0.5228  0.3205 -0.0295
  999SOL    HW1 2996   1.376   0.337   2.907 -2.7378 -1.8238  3.4990
  999SOL    HW2 2997   1.227   0.371   2.855  0.7485 -2.4226  0.6566
 1000SOL     OW 2998   1.014   2.609   1.228 -0.2252  0.3620  0.3012
 1000SOL    HW1 2999   0.956   2.664   1.168 -1.5643  0.1396 -1.3674
 1000SOL    HW2 3000   1.015   2.647   1.325  0.2503 -1.9121 -0.4782
   3.09554   3.09554   3.09554
