1000 SPC/Fw water molecules
3000
    1SOL  OW       1   0.927   2.931   0.810  0.2598  0.0253 -0.2697
    1SOL  HW1      2   1.006   2.926   0.751 -1.8352 -1.7864  0.3304
    1SOL  HW2      3   0.887   2.839   0.820  0.9272 -0.3994  2.3416
    2SOL  OW       4   1.804   0.742   1.646 -0.1642  0.1753 -0.0531
    2SOL  HW1      5   1.813   0.794   1.557 -1.9794 -3.4682 -0.4482
    2SOL  HW2      6   1.830   0.642   1.637 -0.2999  0.2531  0.7843
    3SOL  OW       7   0.984   0.483   1.908 -0.0763  0.4183 -0.1177
    3SOL  HW1      8   0.980   0.569   1.856  1.1475  0.3838 -1.0822
    3SOL  HW2      9   0.894   0.433   1.905 -1.3556 -0.2526  2.8468
    4SOL  OW      10   2.065   1.801   0.252 -0.7561 -0.3653  0.1483
    4SOL  HW1     11   2.151   1.832   0.207  0.5771  0.7145 -0.3302
    4SOL  HW2     12   2.023   1.879   0.305  0.1399  0.9325 -0.3140
    5SOL  OW      13   0.818   0.997   2.813 -0.1463  0.4602  0.3220
    5SOL  HW1     14   0.809   0.924   2.882  0.1271  1.5321  0.6786
    5SOL  HW2     15   0.728   1.034   2.786  2.4031 -2.0322 -2.6214
    6SOL  OW      16   2.551   0.816   2.412  0.1439 -0.4723 -0.4607
    6SOL  HW1     17   2.620   0.793   2.484  3.2983  1.2127  2.7578
    6SOL  HW2     18   2.465   0.850   2.457  2.8555  1.6430 -1.1274
    7SOL  OW      19   2.847   1.463   0.529  0.6692  0.0509  0.0410
    7SOL  HW1     20   2.883   1.490   0.439  0.0071 -2.0892  0.0245
    7SOL  HW2     21   2.768   1.403   0.511  1.4913 -0.8777  0.4278
    8SOL  OW      22   2.589   2.383   1.717  0.7450  0.1815  0.4438
    8SOL  HW1     23   2.670   2.443   1.692  2.1742  1.1179 -1.0007
    8SOL  HW2     24   2.553   2.392   1.811  1.3130 -1.1303 -2.8888
    9SOL  OW      25   0.600   2.797   0.708  0.3605  0.0703 -0.0425
    9SOL  HW1     26   0.599   2.899   0.747 -1.1968  1.3169  0.5567
    9SOL  HW2     27   0.661   2.744   0.774  0.4523 -2.9212  1.8013
   10SOL  OW      28   0.232   2.498   0.014 -0.2880  0.5451  0.1199
   10SOL  HW1     29   0.175   2.580   0.002 -0.9338 -0.6717  1.1770
   10SOL  HW2     30   0.313   2.518   0.076  1.3972 -1.6625  1.3146
   11SOL  OW      31   0.303   2.151   0.263 -0.3517  0.5141  0.2327
   11SOL  HW1     32   0.324   2.055   0.250  1.3446 -0.4580  0.6988
   11SOL  HW2     33   0.381   2.217   0.242 -0.7381 -0.4878  0.9702
   12SOL  OW      34   0.168   2.883   0.518 -0.0351 -0.4495 -0.5657
   12SOL  HW1     35   0.244   2.821   0.550  2.1130 -1.8083  1.9483
   12SOL  HW2     36   0.075   2.860   0.560  0.1658 -2.4722 -3.5648
   13SOL  OW      37   2.732   0.954   2.771  0.6761 -0.2940 -0.0603
   13SOL  HW1     38   2.703   0.861   2.740  1.0179 -0.3780  1.3964
   13SOL  HW2     39   2.778   0.954   2.859 -0.4259  0.0054  1.7771
   14SOL  OW      40   1.440   0.897   1.804  0.5126 -0.0259 -0.1845
   14SOL  HW1     41   1.486   0.980   1.848 -3.4226  0.9583  1.8958
   14SOL  HW2     42   1.339   0.903   1.785  0.6787  0.5150  0.9947
   15SOL  OW      43   1.150   1.466   2.183 -0.2626  0.7059  0.3104
   15SOL  HW1     44   1.105   1.561   2.185 -2.8286 -0.3086 -0.5588
   15SOL  HW2     45   1.234   1.465   2.129  1.3936 -0.3984  1.4321
   16SOL  OW      46   1.891   0.878   0.598  0.8212 -0.6213  0.8955
   16SOL  HW1     47   1.869   0.901   0.500 -1.8762  2.0449 -3.1409
   16SOL  HW2     48   1.984   0.838   0.609  2.1806  0.9750  1.3115
   17SOL  OW      49   2.879   2.135   2.751 -0.0781 -0.2290  0.0574
   17SOL  HW1     50   2.813   2.153   2.677 -1.6816 -3.2331  0.3673
   17SOL  HW2     51   2.847   2.175   2.838 -2.1386 -0.1689  1.5310
   18SOL  OW      52   1.185   1.265   1.359 -0.8885  0.3063  0.3654
   18SOL  HW1     53   1.286   1.283   1.366 -0.0790 -0.3441 -0.2072
   18SOL  HW2     54   1.135   1.351   1.382 -2.3999 -0.2555  0.2392
   19SOL  OW      55   2.744   1.737   1.274 -0.4840 -0.1832  0.1181
   19SOL  HW1     56   2.814   1.805   1.249  0.1317  3.6270 -1.9444
   19SOL  HW2     57   2.695   1.706   1.187 -0.4942 -2.5240 -1.0992
   20SOL  OW      58   2.077   2.166   3.087 -0.1693 -0.2683 -0.1046
   20SOL  HW1     59   2.135   2.133   3.011 -0.5520 -1.3502  2.1598
   20SOL  HW2     60   1.984   2.126   3.082 -2.0684 -2.7349 -4.2308
   21SOL  OW      61   1.387   2.022   1.002  0.4157 -0.4904 -0.1193
   21SOL  HW1     62   1.489   1.998   0.986 -2.4520  0.0656 -1.7447
   21SOL  HW2     63   1.332   1.998   0.921  0.1261  2.3360 -0.8333
   22SOL  OW      64   1.999   2.634   1.550  0.0299  0.1522  0.2299
   22SOL  HW1     65   1.910   2.581   1.563  1.4641 -0.8317 -0.6290
   22SOL  HW2     66   2.028   2.641   1.448 -0.1475  1.1420 -2.9549
   23SOL  OW      67   1.778   1.346   1.274  0.0885 -0.1869 -0.5312
   23SOL  HW1     68   1.759   1.432   1.224 -1.4935 -1.8283  2.6133
   23SOL  HW2     69   1.713   1.273   1.243  2.7857 -1.9098  0.4653
   24SOL  OW      70   1.913   1.112   1.572 -0.2060  0.3302  0.0088
   24SOL  HW1     71   1.986   1.183   1.569  0.4147  0.3039  1.6183
   24SOL  HW2     72   1.836   1.142   1.635  2.4118  0.5006  2.2145
   25SOL  OW      73   1.766   2.245   2.751 -0.2666 -0.4202  0.2539
   25SOL  HW1     74   1.677   2.253   2.802 -1.1035 -1.8578  0.4418
   25SOL  HW2     75   1.749   2.242   2.647  0.3528  0.9331  2.0986
   26SOL  OW      76   0.981   3.075   1.040  0.3456 -0.3947  0.1556
   26SOL  HW1     77   0.945   3.049   0.949  1.1359  1.2487  1.6341
   26SOL  HW2     78   0.923   3.018   1.104 -2.8346  0.6075 -1.9716
   27SOL  OW      79   1.054   1.097   0.634 -0.4200 -0.0250 -0.1749
   27SOL  HW1     80   0.957   1.098   0.603 -2.1555  2.7110 -0.9412
   27SOL  HW2     81   1.084   1.192   0.660  1.9081 -1.8821 -2.3595
   28SOL  OW      82   2.137   2.464   1.994 -0.1332 -0.2343 -0.3566
   28SOL  HW1     83   2.147   2.542   2.060 -0.8712 -0.6601 -0.5531
   28SOL  HW2     84   2.152   2.493   1.897 -0.9757  0.3232 -0.7909
   29SOL  OW      85   2.180   2.614   2.441  0.4674  0.0086  0.2211
   29SOL  HW1     86   2.151   2.620   2.342  0.1315 -0.0639 -0.7658
   29SOL  HW2     87   2.117   2.542   2.486 -0.9734 -2.4205 -0.1878
   30SOL  OW      88   3.060   0.222   2.092 -0.5836  0.2147 -0.6533
   30SOL  HW1     89   3.029   0.128   2.067 -1.7479  0.6399  1.0531
   30SOL  HW2     90   3.081   0.226   2.191 -1.2221 -0.2326 -0.7790
   31SOL  OW      91   3.073   2.079   2.097 -0.2668  0.0773  0.1445
   31SOL  HW1     92   3.078   2.088   2.196 -1.6574 -1.2796 -1.7980
   31SOL  HW2     93   3.044   1.986   2.070  1.1136  0.4028 -0.0655
   32SOL  OW      94   0.834   2.434   2.149  1.3465 -0.4778 -0.5972
   32SOL  HW1     95   0.843   2.503   2.076  1.3871  2.3274  0.4446
   32SOL  HW2     96   0.893   2.459   2.229 -2.5491  0.4369 -0.5181
   33SOL  OW      97   2.932   0.844   3.027  0.0465  0.1569  0.2966
   33SOL  HW1     98   3.012   0.907   3.016  1.3810 -1.1853 -0.4886
   33SOL  HW2     99   2.963   0.765   3.080 -1.0358 -1.6151 -0.4288
   34SOL  OW     100   0.001   0.213   2.908 -0.2884 -0.4175  0.0332
   34SOL  HW1    101   0.086   0.249   2.862 -1.9989  0.9087 -0.6039
   34SOL  HW2    102   3.022   0.281   2.896 -1.4445 -2.3258 -1.6568
   35SOL  OW     103   2.843   2.894   2.824  0.1358  0.0775  0.1078
   35SOL  HW1    104   2.756   2.927   2.774 -1.0965 -3.5739  0.4979
   35SOL  HW2    105   2.926   2.943   2.802 -0.6959 -0.1157  1.3417
   36SOL  OW     106   2.628   2.871   2.625  0.4483  0.3704 -0.1605
   36SOL  HW1    107   2.537   2.913   2.645 -0.0133  1.5779  1.1489
   36SOL  HW2    108   2.655   2.890   2.530  1.2996 -2.6191  0.4532
   37SOL  OW     109   1.733   2.345   0.261 -0.3611 -0.4915 -0.0860
   37SOL  HW1    110   1.681   2.260   0.241 -1.6136  2.2423 -1.6656
   37SOL  HW2    111   1.685   2.384   0.343  1.8601  1.0843 -0.3136
   38SOL  OW     112   0.711   2.690   0.448  0.2933  0.4923  0.0073
   38SOL  HW1    113   0.779   2.764   0.436 -2.1015  1.4657 -3.8449
   38SOL  HW2    114   0.629   2.714   0.506  0.3736  0.5368 -0.6230
   39SOL  OW     115   0.904   2.301   1.823 -0.1099  0.4980 -0.3569
   39SOL  HW1    116   0.995   2.270   1.864  0.3659  0.3451  1.5957
   39SOL  HW2    117   0.828   2.277   1.880  0.5909  4.9654  0.0558
   40SOL  OW     118   0.288   0.935   2.895 -0.1781  0.0054  0.0787
   40SOL  HW1    119   0.334   1.017   2.854 -0.8108  2.0116  0.4078
   40SOL  HW2    120   0.349   0.858   2.898  0.8671  0.0218 -1.0468
   41SOL  OW     121   1.533   0.359   2.112  0.2043  0.1556 -0.3447
   41SOL  HW1    122   1.437   0.321   2.111 -1.5964  0.3426 -3.0762
   41SOL  HW2    123   1.609   0.296   2.093 -2.8250 -1.4483 -0.6891
   42SOL  OW     124   2.083   2.958   1.039 -0.4940 -0.9789 -0.4257
   42SOL  HW1    125   2.123   2.887   0.985 -0.3060  0.7997  0.7055
   42SOL  HW2    126   1.997   2.996   0.991  1.3936 -2.1749  0.8035
   43SOL  OW     127   0.979   0.594   1.114  0.0579  0.2887 -0.2418
   43SOL  HW1    128   0.955   0.504   1.153  1.3240 -1.8716 -3.0698
   43SOL  HW2    129   0.937   0.598   1.022 -0.3007  1.1818 -0.7454
   44SOL  OW     130   0.426   0.702   2.943  0.3295 -0.5899  0.7623
   44SOL  HW1    131   0.498   0.684   3.011 -2.3467 -0.0726  0.7173
   44SOL  HW2    132   0.342   0.647   2.971  0.6755  0.8153 -2.1261
   45SOL  OW     133   0.596   1.255   2.061 -0.7951  0.2045  0.3461
   45SOL  HW1    134   0.516   1.270   2.126  1.0359 -4.6714 -0.9193
   45SOL  HW2    135   0.678   1.240   2.122 -0.1990 -1.3597 -1.3409
   46SOL  OW     136   1.698   2.511   1.878  0.2308 -0.5666 -0.2376
   46SOL  HW1    137   1.732   2.412   1.866 -1.4232  2.7194  0.0782
   46SOL  HW2    138   1.705   2.556   1.790 -0.9804 -0.2345  2.1517
   47SOL  OW     139   0.803   1.958   1.086  1.1359 -0.3544  0.1533
   47SOL  HW1    140   0.838   1.974   0.990 -0.1818  0.6907 -3.4545
   47SOL  HW2    141   0.704   1.940   1.087 -2.0917 -1.0293 -0.4738
   48SOL  OW     142   1.136   2.338   2.519  0.1852  0.2383 -0.0369
   48SOL  HW1    143   1.055   2.275   2.525  1.3903  0.4120  0.1194
   48SOL  HW2    144   1.221   2.283   2.526  2.3883  1.2602 -1.6367
   49SOL  OW     145   2.524   1.070   1.751  0.2267 -0.3010 -0.7125
   49SOL  HW1    146   2.573   1.024   1.825 -0.2281 -1.0748  0.0642
   49SOL  HW2    147   2.491   1.163   1.773  0.1784 -0.9965  2.6563
   50SOL  OW     148   0.614   0.491   2.574 -0.1107 -0.4786  0.9479
   50SOL  HW1    149   0.651   0.519   2.487  2.3737  0.3333 -0.9981
   50SOL  HW2    150   0.630   0.563   2.644  0.5156  3.7768 -1.4909
   51SOL  OW     151   1.414   0.146   1.079  0.3731  0.3251  0.0299
   51SOL  HW1    152   1.447   0.111   1.172 -1.1997 -0.7616 -0.6261
   51SOL  HW2    153   1.312   0.155   1.074  2.4055 -0.0836 -1.5688
   52SOL  OW     154   0.464   0.967   0.439  0.4455  0.0914 -0.1110
   52SOL  HW1    155   0.492   0.868   0.438  0.8895 -1.4832 -1.3086
   52SOL  HW2    156   0.361   0.975   0.456 -0.3556  0.3289 -2.3609
   53SOL  OW     157   0.580   3.033   2.053 -0.2044 -0.4509  0.0707
   53SOL  HW1    158   0.485   3.066   2.037 -1.5802 -3.0719  1.5217
   53SOL  HW2    159   0.636   3.041   1.972 -4.3775  0.1282  1.0862
   54SOL  OW     160   2.008   3.028   1.962 -0.1178  0.3061  0.1741
   54SOL  HW1    161   2.062   3.078   2.036  0.4914  0.1799 -0.1436
   54SOL  HW2    162   1.925   2.988   2.006 -0.5688 -2.9421  0.0031
   55SOL  OW     163   3.072   0.821   0.357  0.1054  0.4816  0.1260
   55SOL  HW1    164   2.998   0.790   0.296 -0.0627 -0.9418  1.4506
   55SOL  HW2    165   3.041   0.835   0.453  0.7917 -0.3126  1.2117
   56SOL  OW     166   0.187   0.876   1.293 -0.6319 -0.2610  0.1705
   56SOL  HW1    167   0.156   0.971   1.316  1.4886  1.7735 -0.0674
   56SOL  HW2    168   0.286   0.874   1.277 -1.3326  0.6516 -1.6916
   57SOL  OW     169   1.540   1.091   2.553 -0.0811 -0.2657 -0.6235
   57SOL  HW1    170   1.606   1.067   2.481 -0.5873  1.6513  0.6991
   57SOL  HW2    171   1.565   1.183   2.596 -0.7963 -4.0232  0.0356
   58SOL  OW     172   0.389   1.178   1.559 -0.3442  0.6940 -1.0184
   58SOL  HW1    173   0.335   1.210   1.636 -0.5119  0.7313 -0.2781
   58SOL  HW2    174   0.421   1.087   1.576 -2.3388 -2.7793 -1.2165
   59SOL  OW     175   0.360   0.172   2.407  0.0440 -0.2623  0.4184
   59SOL  HW1    176   0.339   0.257   2.359 -5.9000  2.7929  1.4003
   59SOL  HW2    177   0.394   0.106   2.338 -1.3007 -2.7817  0.3475
   60SOL  OW     178   2.262   2.384   0.518  0.3880  0.0164 -0.6863
   60SOL  HW1    179   2.263   2.474   0.471 -0.5426 -2.1967 -1.3709
   60SOL  HW2    180   2.333   2.392   0.595  0.8193  1.1607  2.6833
   61SOL  OW     181   0.653   0.322   0.284  0.0431 -0.4031 -0.4823
   61SOL  HW1    182   0.717   0.263   0.229 -1.4849 -3.7736 -2.4460
   61SOL  HW2    183   0.556   0.312   0.264 -0.3379  2.6445  0.3926
   62SOL  OW     184   2.376   2.234   2.862 -0.1235  0.0183  0.3854
   62SOL  HW1    185   2.290   2.181   2.854 -1.0385 -3.6571 -3.8311
   62SOL  HW2    186   2.379   2.290   2.946  0.3126  1.3587  0.2739
   63SOL  OW     187   2.421   1.017   0.890 -0.3661 -0.3483  0.1009
   63SOL  HW1    188   2.453   0.987   0.980  0.7824  0.3115 -0.9352
   63SOL  HW2    189   2.324   1.051   0.890 -0.1712 -0.5005  1.4306
   64SOL  OW     190   1.564   3.064   0.372  0.0520 -0.3952 -0.3526
   64SOL  HW1    191   1.598   2.976   0.416  0.1322  0.7839  1.2208
   64SOL  HW2    192   1.609   3.076   0.280  1.2487 -1.3467  2.1680
   65SOL  OW     193   3.014   3.067   2.010 -0.8831  0.4703 -0.5591
   65SOL  HW1    194   2.970   3.028   1.928  0.2348 -1.0126 -0.1503
   65SOL  HW2    195   3.052   2.991   2.069 -0.5719  0.4489  1.0299
   66SOL  OW     196   1.106   1.179   1.637 -0.5831  0.8157 -0.3537
   66SOL  HW1    197   1.126   1.200   1.538 -0.2478  0.4439  0.4875
   66SOL  HW2    198   1.004   1.166   1.653 -1.1774  0.2191 -0.1643
   67SOL  OW     199   2.558   2.186   2.175 -0.2585  0.2733  0.0257
   67SOL  HW1    200   2.527   2.089   2.163  1.3846  0.5556 -3.4598
   67SOL  HW2    201   2.653   2.186   2.212 -0.1260 -3.2110  0.4954
   68SOL  OW     202   1.298   1.790   1.454  0.0761  0.0287 -0.4455
   68SOL  HW1    203   1.303   1.740   1.541  0.4244 -2.7460 -1.3920
   68SOL  HW2    204   1.213   1.846   1.454 -2.0171  0.2005 -0.6274
   69SOL  OW     205   3.087   0.316   0.314 -0.1774 -0.3295  0.3090
   69SOL  HW1    206   0.056   0.285   0.386  1.9317 -0.3703  1.6241
   69SOL  HW2    207   2.986   0.313   0.341  0.8753  0.1005  0.0271
   70SOL  OW     208   2.735   0.879   2.203 -0.5054 -0.1529 -0.3344
   70SOL  HW1    209   2.649   0.868   2.261 -0.0148 -1.9666  0.3329
   70SOL  HW2    210   2.789   0.797   2.205 -0.3382 -1.0200  0.9399
   71SOL  OW     211   1.006   2.321   1.105  0.2974  0.0371 -0.7226
   71SOL  HW1    212   0.964   2.257   1.173 -1.7814  2.7048 -2.4179
   71SOL  HW2    213   0.969   2.416   1.115 -1.5711 -1.4847  0.3844
   72SOL  OW     214   2.313   1.919   0.497 -0.0393  0.1775 -0.2556
   72SOL  HW1    215   2.328   2.014   0.460 -0.5304  2.1743 -1.5762
   72SOL  HW2    216   2.227   1.905   0.553 -1.0131  0.5087 -0.8498
   73SOL  OW     217   0.643   0.586   0.303  0.3170  0.1980 -0.1847
   73SOL  HW1    218   0.636   0.487   0.315 -0.2667 -0.8059 -0.7020
   73SOL  HW2    219   0.730   0.625   0.331 -0.9065  0.7161 -3.4364
   74SOL  OW     220   2.231   1.937   1.563 -0.1793  0.0816  0.1993
   74SOL  HW1    221   2.304   1.960   1.631 -2.3260 -1.4112  1.7629
   74SOL  HW2    222   2.277   1.925   1.470  0.1293  0.7562 -0.0270
   75SOL  OW     223   1.274   2.066   2.194 -0.3874  0.5545  0.5425
   75SOL  HW1    224   1.326   1.987   2.160  0.9521  0.7921  2.5473
   75SOL  HW2    225   1.330   2.115   2.262  2.1196  0.2403 -0.3580
   76SOL  OW     226   1.063   1.938   1.404 -0.3900  0.1009 -0.0548
   76SOL  HW1    227   1.033   1.857   1.353  0.7802  1.2451  0.1267
   76SOL  HW2    228   1.005   1.949   1.488 -1.9315  2.5258  1.0090
   77SOL  OW     229   1.788   0.902   1.428  0.1505  0.1966  0.3690
   77SOL  HW1    230   1.837   0.976   1.476 -0.6914  1.6961 -1.9536
   77SOL  HW2    231   1.798   0.903   1.326  1.3421  0.1954  0.8063
   78SOL  OW     232   2.187   0.491   0.589  0.0530 -0.0507 -0.2411
   78SOL  HW1    233   2.087   0.502   0.609 -0.0227 -1.1914  0.2712
   78SOL  HW2    234   2.205   0.463   0.492  1.1539  0.9050 -0.7352
   79SOL  OW     235   0.950   1.965   2.066  0.0854  0.0002  0.3560
   79SOL  HW1    236   0.992   2.057   2.074  1.9793 -2.5012  0.9864
   79SOL  HW2    237   0.853   1.976   2.091 -1.3190 -1.4798  0.3354
   80SOL  OW     238   1.390   0.458   1.647  0.0447  0.0413 -0.1231
   80SOL  HW1    239   1.356   0.400   1.725 -0.1345  1.7464  0.3849
   80SOL  HW2    240   1.451   0.530   1.688  0.3605  0.8295 -2.5039
   81SOL  OW     241   0.986   2.216   0.070 -0.0149  0.2677 -0.2338
   81SOL  HW1    242   0.948   2.216   3.067 -0.3269  1.1827  0.8821
   81SOL  HW2    243   1.077   2.171   0.071  0.4641 -0.3505  1.8555
   82SOL  OW     244   1.161   0.208   1.668  0.7785 -0.6309  0.0655
   82SOL  HW1    245   1.190   0.262   1.753 -0.9926 -0.9566  1.4251
   82SOL  HW2    246   1.209   0.118   1.667  0.6877 -1.9267 -0.3963
   83SOL  OW     247   0.291   2.597   1.138 -0.3121  0.2756 -0.5980
   83SOL  HW1    248   0.289   2.527   1.215  1.8001 -0.0588  0.0919
   83SOL  HW2    249   0.306   2.693   1.180  0.6036  1.8090  0.7868
   84SOL  OW     250   2.312   1.414   0.978 -0.3183  0.4869 -0.2991
   84SOL  HW1    251   2.375   1.400   0.903  2.6605 -0.2486 -1.5664
   84SOL  HW2    252   2.359   1.442   1.066  1.3982  0.5190 -0.3423
   85SOL  OW     253   1.940   1.700   1.332 -0.0317 -0.1832 -0.5750
   85SOL  HW1    254   1.865   1.645   1.290  0.8088 -1.0138 -1.4257
   85SOL  HW2    255   1.938   1.796   1.297  2.2921 -2.1890  0.1535
   86SOL  OW     256   1.565   2.136   2.027 -0.8906 -0.1173 -0.0311
   86SOL  HW1    257   1.528   2.231   2.026 -0.0093  0.1282  1.4738
   86SOL  HW2    258   1.667   2.144   2.039 -1.1523  0.9206 -1.4532
   87SOL  OW     259   2.228   1.730   0.806  0.1333  0.5373 -0.2806
   87SOL  HW1    260   2.251   1.665   0.729  0.3496 -2.8461  0.9802
   87SOL  HW2    261   2.160   1.690   0.875  0.1852  1.7508 -0.0621
   88SOL  OW     262   0.149   2.413   0.999  0.1649 -0.3992 -0.3572
   88SOL  HW1    263   0.214   2.483   1.037 -1.6719 -1.1362 -0.7631
   88SOL  HW2    264   0.202   2.343   0.952 -1.3789  1.5595  0.9074
   89SOL  OW     265   0.629   1.769   1.972 -0.1882 -0.2395  0.0894
   89SOL  HW1    266   0.672   1.690   2.010 -1.2455 -1.4189 -1.2430
   89SOL  HW2    267   0.528   1.768   1.985 -0.0607 -1.2250  1.1883
   90SOL  OW     268   2.546   1.855   0.627 -0.5619  0.5986 -0.1982
   90SOL  HW1    269   2.528   1.841   0.728  0.7723  1.1111 -0.3893
   90SOL  HW2    270   2.465   1.896   0.578  1.1590 -0.7542  0.0449
   91SOL  OW     271   0.373   1.623   0.526  0.1809 -0.6316  0.0881
   91SOL  HW1    272   0.443   1.700   0.532  0.0774  3.9273  0.9290
   91SOL  HW2    273   0.283   1.659   0.490  1.5786 -0.1450 -1.7695
   92SOL  OW     274   2.124   2.878   1.549  0.1237  0.1972 -0.4782
   92SOL  HW1    275   2.045   2.940   1.520 -0.0547  1.1920 -1.8841
   92SOL  HW2    276   2.091   2.781   1.559 -0.1690  1.0351  0.1809
   93SOL  OW     277   0.621   1.509   1.735 -0.1778  0.3110 -0.2885
   93SOL  HW1    278   0.525   1.490   1.757 -2.5044 -1.6036 -1.8562
   93SOL  HW2    279   0.631   1.610   1.741  1.0241  0.2109  0.1409
   94SOL  OW     280   1.749   0.199   2.036 -0.0411  0.0092 -0.1229
   94SOL  HW1    281   1.784   0.266   1.966 -0.0769 -0.2995  1.8550
   94SOL  HW2    282   1.787   0.223   2.128 -1.6998 -1.1995 -0.4057
   95SOL  OW     283   1.864   0.031   1.723 -0.3367 -0.0576  0.4722
   95SOL  HW1    284   1.910   3.090   1.806 -0.0401  1.9558  0.8708
   95SOL  HW2    285   1.901   3.090   1.632  0.2628 -1.5882  1.7934
   96SOL  OW     286   0.480   0.629   2.121 -0.2535 -0.2800  0.5224
   96SOL  HW1    287   0.395   0.575   2.098  1.0842 -1.8018  1.6224
   96SOL  HW2    288   0.536   0.659   2.037  0.8066  4.9324 -0.7631
   97SOL  OW     289   1.947   2.741   2.083  0.3654 -0.2261 -0.7253
   97SOL  HW1    290   1.916   2.835   2.091  2.8658  2.7311  0.2500
   97SOL  HW2    291   1.858   2.685   2.090  0.9370  1.2298  0.1004
   98SOL  OW     292   1.251   2.398   1.788  0.3855  0.7530  0.6623
   98SOL  HW1    293   1.266   2.477   1.724 -0.0952  0.3707 -1.5652
   98SOL  HW2    294   1.194   2.328   1.743 -0.4339 -0.8040  1.1137
   99SOL  OW     295   0.064   0.837   1.046 -0.6298  0.5581  0.0963
   99SOL  HW1    296   0.116   0.805   1.128  0.4669  0.6516  0.6876
   99SOL  HW2    297   0.089   0.778   0.965  1.9879 -0.6155  0.1877
  100SOL  OW     298   2.531   1.248   2.098 -0.0098  0.0788 -0.0572
  100SOL  HW1    299   2.474   1.169   2.069 -0.3195  0.8339 -4.0022
  100SOL  HW2    300   2.467   1.323   2.113 -2.1591 -2.3229 -0.0730
  101SOL  OW     301   0.908   0.488   3.063 -0.0988 -0.3936 -0.0470
  101SOL  HW1    302   0.971   0.535   0.034  0.5237  0.0897 -1.7989
  101SOL  HW2    303   0.907   0.543   2.977 -0.1625  2.2995  1.0305
  102SOL  OW     304   2.553   0.068   1.135 -0.1495  0.3053  0.4413
  102SOL  HW1    305   2.482   0.047   1.204 -0.4526  1.9471 -0.6594
  102SOL  HW2    306   2.561   0.173   1.123 -0.1034 -1.9843  1.9765
  103SOL  OW     307   0.240   0.507   2.018 -0.0064 -0.3751 -0.0661
  103SOL  HW1    308   0.150   0.542   2.053  1.5714  2.0062 -0.3765
  103SOL  HW2    309   0.284   0.564   1.946  0.0295 -0.8479  1.0880
  104SOL  OW     310   0.329   2.234   0.861 -0.4945 -0.6509 -0.7033
  104SOL  HW1    311   0.325   2.146   0.802 -0.6242 -2.4342  0.6121
  104SOL  HW2    312   0.377   2.225   0.947  2.4023  1.0298  0.4281
  105SOL  OW     313   0.677   1.992   2.128  0.5386 -0.2264  0.6126
  105SOL  HW1    314   0.587   2.009   2.175  1.1991 -1.0501 -0.5125
  105SOL  HW2    315   0.661   1.910   2.068  0.5026  1.1031 -1.5405
  106SOL  OW     316   2.530   2.956   0.677 -0.1489 -0.2874 -0.4838
  106SOL  HW1    317   2.537   2.999   0.584  0.0437  1.0791 -2.0809
  106SOL  HW2    318   2.554   3.021   0.750  0.0528  0.9747  0.5564
  107SOL  OW     319   0.958   1.537   1.092 -0.2787  0.0240  0.0373
  107SOL  HW1    320   0.917   1.448   1.077  2.4134  0.5810  0.8631
  107SOL  HW2    321   1.045   1.549   1.041 -0.2860 -0.1757 -0.8327
  108SOL  OW     322   0.002   1.510   2.227 -0.4700  0.7067  0.2468
  108SOL  HW1    323   3.080   1.425   2.174  3.3585  0.6532 -3.4015
  108SOL  HW2    324   0.075   1.574   2.191  1.0720  3.9712  1.2640
  109SOL  OW     325   2.195   2.342   0.159 -0.0618  0.5451  0.3041
  109SOL  HW1    326   2.296   2.346   0.164 -0.9996 -1.9103  2.9988
  109SOL  HW2    327   2.169   2.270   0.095  1.5389 -0.6280  0.5292
  110SOL  OW     328   0.861   2.903   0.384 -0.0045  0.1209 -0.0700
  110SOL  HW1    329   0.955   2.893   0.342 -1.8546 -0.0497 -1.3654
  110SOL  HW2    330   0.864   2.997   0.423  0.0523  1.0283  1.5483
  111SOL  OW     331   2.323   0.576   2.982 -0.6000 -0.4892 -0.2807
  111SOL  HW1    332   2.262   0.563   3.065  3.0813 -3.2517 -0.3982
  111SOL  HW2    333   2.421   0.578   3.014 -0.2936  0.1799 -0.9020
  112SOL  OW     334   2.686   2.720   1.475 -0.2361 -0.4226  0.1079
  112SOL  HW1    335   2.666   2.625   1.454 -2.5180  0.4100 -0.1960
  112SOL  HW2    336   2.717   2.778   1.394 -1.1244  0.3781  1.1812
  113SOL  OW     337   2.695   2.243   0.086 -0.1147  0.0767 -0.1875
  113SOL  HW1    338   2.728   2.283   0.002  0.9376 -0.8004 -2.8429
  113SOL  HW2    339   2.685   2.140   0.081 -0.4030 -1.0917  1.8892
  114SOL  OW     340   0.577   0.099   0.558 -0.2340  0.0552  1.0185
  114SOL  HW1    341   0.645   0.173   0.545 -0.3815 -0.0186  2.8280
  114SOL  HW2    342   0.488   0.134   0.594  1.0901  2.4553  2.1076
  115SOL  OW     343   0.395   1.850   2.793  0.2363  0.4408 -0.5475
  115SOL  HW1    344   0.289   1.846   2.778 -0.4309  2.6914  0.5926
  115SOL  HW2    345   0.431   1.756   2.785  1.2701  1.2314  2.2881
  116SOL  OW     346   2.052   1.745   1.581  0.4911  0.2397  0.6544
  116SOL  HW1    347   2.135   1.800   1.580  1.6529 -0.4071 -1.9127
  116SOL  HW2    348   2.020   1.721   1.486  2.2683 -0.6314  1.7771
  117SOL  OW     349   1.444   0.330   1.408 -0.0851  0.0762  0.4070
  117SOL  HW1    350   1.415   0.374   1.494  1.9060 -1.6430 -0.1523
  117SOL  HW2    351   1.516   0.263   1.415 -0.9524 -0.1704  0.0103
  118SOL  OW     352   2.434   2.193   2.609  0.0271  0.4443  0.5861
  118SOL  HW1    353   2.381   2.110   2.577  0.0704  0.2858 -0.5333
  118SOL  HW2    354   2.422   2.208   2.709  0.0784  0.3225  0.0329
  119SOL  OW     355   0.815   1.298   1.111  0.2391 -0.5951  0.4458
  119SOL  HW1    356   0.841   1.201   1.101  0.9114 -0.2073  1.1319
  119SOL  HW2    357   0.796   1.327   1.209  2.3714 -0.2350 -1.3167
  120SOL  OW     358   0.750   1.643   1.421 -0.4852 -0.7810 -0.5913
  120SOL  HW1    359   0.745   1.691   1.512  0.1334  2.0751  1.0874
  120SOL  HW2    360   0.819   1.685   1.361  0.4448 -0.9470 -3.3752
  121SOL  OW     361   1.455   0.879   0.457 -0.1948 -0.3212  0.0714
  121SOL  HW1    362   1.355   0.895   0.448  0.7389  0.4284  0.4018
  121SOL  HW2    363   1.489   0.948   0.522  0.6739  0.0158  0.9097
  122SOL  OW     364   2.507   2.624   0.006 -0.4539  0.0845 -0.2904
  122SOL  HW1    365   2.594   2.624   3.047  1.3657 -2.3944  0.0669
  122SOL  HW2    366   2.439   2.679   3.051  0.8213 -0.2745 -0.2443
  123SOL  OW     367   0.322   0.339   0.406  0.5358  0.2293 -0.8770
  123SOL  HW1    368   0.322   0.285   0.493 -1.9778 -1.7353 -1.1669
  123SOL  HW2    369   0.292   0.435   0.429 -0.7925  2.9614 -3.5437
  124SOL  OW     370   1.383   1.132   3.005  0.2371 -0.2585 -0.6737
  124SOL  HW1    371   1.467   1.154   2.955  2.5866  1.6125 -0.4300
  124SOL  HW2    372   1.331   1.214   3.028  0.7647  1.7730  0.0416
  125SOL  OW     373   2.342   0.951   1.609 -0.5313 -0.1021 -0.4361
  125SOL  HW1    374   2.366   0.854   1.589  0.2949  0.2939 -1.2492
  125SOL  HW2    375   2.419   1.008   1.648 -2.1622 -2.1832 -0.9241
  126SOL  OW     376   0.065   0.535   0.199 -0.2033 -0.4022  0.6926
  126SOL  HW1    377   0.033   0.443   0.231 -0.3682  2.6064 -0.9806
  126SOL  HW2    378   0.108   0.580   0.282 -0.3266 -1.0976  0.0247
  127SOL  OW     379   0.434   1.568   2.736  0.1446  0.1908  0.3573
  127SOL  HW1    380   0.516   1.537   2.690  0.4478 -1.8971  0.1380
  127SOL  HW2    381   0.349   1.545   2.680 -0.1366  0.0194  0.8561
  128SOL  OW     382   1.167   0.627   1.561  0.7613  0.3076  0.1114
  128SOL  HW1    383   1.238   0.566   1.598 -1.6947 -2.2457  1.7994
  128SOL  HW2    384   1.214   0.711   1.527 -0.2665  0.0146 -0.5993
  129SOL  OW     385   2.118   2.288   1.693 -0.0416  0.1813  0.5363
  129SOL  HW1    386   2.133   2.232   1.776  0.2753 -1.1590 -2.3215
  129SOL  HW2    387   2.127   2.390   1.715  0.0369  0.3635 -0.0256
  130SOL  OW     388   1.782   0.450   0.190 -0.0908  0.4223 -0.0995
  130SOL  HW1    389   1.782   0.530   0.254 -1.1511  3.2345 -0.0104
  130SOL  HW2    390   1.688   0.409   0.174 -1.8923 -0.0215  0.7540
  131SOL  OW     391   2.695   2.195   2.544 -0.0737 -0.1026 -0.3048
  131SOL  HW1    392   2.596   2.182   2.563  1.0280  1.3642 -0.5521
  131SOL  HW2    393   2.721   2.173   2.449 -1.7152  0.2609 -4.6483
  132SOL  OW     394   0.967   0.810   2.191  0.4975 -0.3612  0.0870
  132SOL  HW1    395   0.940   0.828   2.095 -0.9905 -1.5216  2.6281
  132SOL  HW2    396   1.008   0.888   2.232 -0.3009  2.6130  2.2520
  133SOL  OW     397   0.446   1.607   1.032  0.0297  0.1315  0.2074
  133SOL  HW1    398   0.403   1.691   1.011  1.2001 -0.5796 -0.5941
  133SOL  HW2    399   0.456   1.612   1.137  0.9799 -0.6048 -0.8928
  134SOL  OW     400   2.636   1.671   0.326  0.4685 -0.2797  0.4250
  134SOL  HW1    401   2.676   1.763   0.328 -1.0201  1.7807  0.4791
  134SOL  HW2    402   2.662   1.621   0.240  1.7526 -2.5134 -0.0828
  135SOL  OW     403   2.275   0.407   0.329 -0.3357 -0.2511  0.6631
  135SOL  HW1    404   2.352   0.342   0.313 -0.3288 -0.1268 -2.4572
  135SOL  HW2    405   2.196   0.377   0.272  0.2331 -1.5352  1.9249
  136SOL  OW     406   2.508   2.375   1.996  0.3679 -0.2478 -0.0181
  136SOL  HW1    407   2.469   2.455   2.048 -0.3766 -3.5578 -1.3856
  136SOL  HW2    408   2.508   2.291   2.059  1.4197  3.0446 -0.7969
  137SOL  OW     409   1.935   1.964   1.255 -0.3205  0.1778  0.3048
  137SOL  HW1    410   1.830   1.958   1.249  0.6098 -0.3421 -1.2136
  137SOL  HW2    411   1.960   2.056   1.294 -0.4975 -0.4470 -1.2339
  138SOL  OW     412   2.533   3.048   2.112  0.1675 -0.4715  0.0798
  138SOL  HW1    413   2.629   3.081   2.118 -2.3071 -0.1063 -1.3502
  138SOL  HW2    414   2.495   3.055   2.017 -0.5253  1.8327  0.6194
  139SOL  OW     415   2.859   0.084   2.614  0.0833 -0.0623 -0.0752
  139SOL  HW1    416   2.765   0.120   2.633  2.8379 -2.0792 -0.1409
  139SOL  HW2    417   2.906   0.046   2.700 -5.0393  1.4279  1.2724
  140SOL  OW     418   1.927   1.544   2.634 -0.3738  0.3197 -0.5542
  140SOL  HW1    419   1.921   1.631   2.689 -3.8164  0.4469  2.8243
  140SOL  HW2    420   1.960   1.459   2.684  2.6950 -0.7722 -2.5600
  141SOL  OW     421   1.605   1.262   2.898  0.3036 -0.0878  0.7200
  141SOL  HW1    422   1.577   1.272   2.799  2.7198  1.5108  2.9958
  141SOL  HW2    423   1.708   1.250   2.903 -0.2716 -2.1264 -1.4890
  142SOL  OW     424   2.415   2.536   2.204  0.0394 -0.2974  0.4584
  142SOL  HW1    425   2.335   2.599   2.189  0.3932  2.0025  0.4188
  142SOL  HW2    426   2.394   2.462   2.269  0.8663 -0.8504  1.4420
  143SOL  OW     427   0.941   2.376   0.542  0.1596 -0.1815 -0.1231
  143SOL  HW1    428   0.979   2.387   0.445  0.7606  0.9597 -2.8699
  143SOL  HW2    429   0.981   2.446   0.607 -1.0678 -4.2316  0.7513
  144SOL  OW     430   0.868   2.869   1.182 -0.1034  0.2759 -0.1199
  144SOL  HW1    431   0.859   2.875   1.285 -0.4184 -0.6656 -0.4620
  144SOL  HW2    432   0.782   2.823   1.142 -0.9804  2.4458  0.4088
  145SOL  OW     433   1.613   2.032   2.971  0.5014  0.3106 -0.0045
  145SOL  HW1    434   1.563   2.050   2.886 -0.4957 -2.5047 -0.1344
  145SOL  HW2    435   1.553   2.067   3.045  0.4209 -0.2002  0.5716
  146SOL  OW     436   1.586   2.433   0.467 -0.1045 -0.0411 -0.2042
  146SOL  HW1    437   1.566   2.533   0.472  0.0353 -0.5023 -1.5435
  146SOL  HW2    438   1.516   2.377   0.419  1.5143  1.1582 -2.8990
  147SOL  OW     439   0.390   1.344   1.336  0.5902  0.1925  0.0927
  147SOL  HW1    440   0.326   1.305   1.266 -0.0870 -0.2701 -1.0239
  147SOL  HW2    441   0.383   1.299   1.425  0.7473 -1.0063  0.5781
  148SOL  OW     442   1.124   2.878   0.297 -0.7469 -0.0030  0.5111
  148SOL  HW1    443   1.139   2.821   0.215 -2.3388  2.6873 -0.0309
  148SOL  HW2    444   1.197   2.946   0.313 -2.2300 -0.1784 -0.5905
  149SOL  OW     445   0.737   2.721   2.900 -0.2701  0.0661 -0.5662
  149SOL  HW1    446   0.707   2.681   2.989 -2.3127  1.3346  0.3702
  149SOL  HW2    447   0.657   2.726   2.835 -0.3652  0.2254 -0.5872
  150SOL  OW     448   3.059   2.511   0.840 -0.2002  0.3062  0.0062
  150SOL  HW1    449   0.045   2.492   0.901  0.9991 -0.8848  0.5750
  150SOL  HW2    450   3.033   2.428   0.792 -2.3099 -0.7315  0.3144
  151SOL  OW     451   0.124   1.834   2.529  0.3655 -0.5655  0.1566
  151SOL  HW1    452   0.081   1.914   2.579 -1.1479  0.7580  0.4278
  151SOL  HW2    453   0.138   1.752   2.593 -1.4448  1.5172  0.8886
  152SOL  OW     454   2.814   1.750   0.633  0.3247 -0.0087  0.1666
  152SOL  HW1    455   2.723   1.789   0.619  1.8759  1.6365 -0.9923
  152SOL  HW2    456   2.827   1.659   0.584  2.5162 -0.1866  0.8413
  153SOL  OW     457   1.727   2.167   0.762 -0.2628  0.1232  0.7844
  153SOL  HW1    458   1.805   2.184   0.703 -0.0651  1.1604 -0.6994
  153SOL  HW2    459   1.711   2.250   0.821  1.6558 -0.5910  0.9123
  154SOL  OW     460   0.304   0.132   1.220 -0.1255  0.4585  0.5509
  154SOL  HW1    461   0.378   0.161   1.159 -1.1800 -1.3481 -2.6542
  154SOL  HW2    462   0.226   0.201   1.223 -1.7652  0.3892  3.0329
  155SOL  OW     463   2.699   2.097   0.774 -0.0849  0.5585 -0.1405
  155SOL  HW1    464   2.741   2.005   0.789 -0.4068 -0.0622 -1.7619
  155SOL  HW2    465   2.738   2.158   0.844  1.1545 -3.5421  2.5160
  156SOL  OW     466   2.744   2.208   0.541 -0.1406  0.2325  0.7235
  156SOL  HW1    467   2.713   2.153   0.619  0.3079 -4.0706 -0.9616
  156SOL  HW2    468   2.843   2.212   0.526 -0.1031 -1.3509 -1.4463
  157SOL  OW     469   0.622   0.637   1.397 -0.6448 -0.2392  0.5413
  157SOL  HW1    470   0.666   0.701   1.328  1.7093  0.7642  0.0317
  157SOL  HW2    471   0.651   0.661   1.492 -1.6254 -0.4767  0.9475
  158SOL  OW     472   1.524   0.938   1.510 -0.3619  0.1937  0.2248
  158SOL  HW1    473   1.615   0.910   1.471  0.3763 -1.7611 -0.2431
  158SOL  HW2    474   1.514   0.904   1.606 -2.2294 -0.4216 -0.6158
  159SOL  OW     475   1.710   0.016   0.118 -0.2573 -0.5453  0.5045
  159SOL  HW1    476   1.800   0.001   0.156  1.2779 -0.0873 -0.5488
  159SOL  HW2    477   1.714   0.051   0.020 -0.5596  0.7861 -0.4612
  160SOL  OW     478   1.195   0.997   0.423 -0.2360  0.3534 -0.5479
  160SOL  HW1    479   1.149   1.047   0.498 -0.5051 -1.9990 -0.3723
  160SOL  HW2    480   1.125   0.948   0.371 -0.0757 -2.7282 -0.9421
  161SOL  OW     481   2.454   1.480   2.852  0.1812  0.1015  0.0146
  161SOL  HW1    482   2.443   1.541   2.934  0.8983  0.0495  1.5726
  161SOL  HW2    483   2.440   1.537   2.768  1.3151  0.1514 -1.3965
  162SOL  OW     484   2.816   1.856   0.882  0.3655  0.4134 -0.2856
  162SOL  HW1    485   2.812   1.787   0.809 -1.2517  2.4061  0.3497
  162SOL  HW2    486   2.912   1.863   0.923  0.2406 -0.1070  0.3633
  163SOL  OW     487   1.737   0.807   2.271 -0.6707  0.3393  0.8973
  163SOL  HW1    488   1.821   0.795   2.218  3.6346 -1.4543  1.3271
  163SOL  HW2    489   1.685   0.720   2.274 -2.1167 -1.7739 -0.9757
  164SOL  OW     490   0.614   0.242   2.493 -0.1792 -0.1246 -0.1391
  164SOL  HW1    491   0.622   0.336   2.533 -2.4820 -0.4124  0.2602
  164SOL  HW2    492   0.520   0.213   2.479 -1.4690  1.9153 -0.1888
  165SOL  OW     493   2.044   0.664   1.361 -0.5475  0.0786  0.1697
  165SOL  HW1    494   2.060   0.757   1.392 -0.5599  2.2397 -1.1413
  165SOL  HW2    495   2.130   0.626   1.309  0.1636 -2.4909  1.3964
  166SOL  OW     496   1.433   1.378   1.352 -0.5333  0.3531 -0.4166
  166SOL  HW1    497   1.469   1.422   1.434  1.1217  0.0562  0.0389
  166SOL  HW2    498   1.408   1.449   1.280 -0.1137  0.6082  2.5713
  167SOL  OW     499   3.043   0.712   2.538 -0.6799 -0.6547 -0.1534
  167SOL  HW1    500   2.966   0.656   2.565 -1.6499  0.7305  0.6871
  167SOL  HW2    501   0.003   0.738   2.616 -2.8334 -0.6014 -0.6375
  168SOL  OW     502   2.665   0.713   2.649  0.3838 -0.2801 -0.1598
  168SOL  HW1    503   2.572   0.681   2.677 -0.6330 -0.9372  0.9189
  168SOL  HW2    504   2.734   0.640   2.653  2.4945 -0.2787  0.2825
  169SOL  OW     505   1.079   1.583   0.015  0.5677  0.0350 -0.3024
  169SOL  HW1    506   1.019   1.566   0.103  2.7716  0.1934  0.3120
  169SOL  HW2    507   1.018   1.568   3.027 -0.9780 -3.7229 -1.3584
  170SOL  OW     508   1.520   1.147   1.880  0.4193 -0.2612 -0.1716
  170SOL  HW1    509   1.616   1.178   1.866  3.2594 -0.1049  1.8723
  170SOL  HW2    510   1.454   1.214   1.833 -0.5627 -0.3424  0.6821
  171SOL  OW     511   1.441   2.553   0.919 -0.0286  0.3596  0.3667
  171SOL  HW1    512   1.380   2.563   0.841  0.7136 -1.9821  1.6158
  171SOL  HW2    513   1.498   2.637   0.936  1.2008  0.9494 -0.2696
  172SOL  OW     514   0.903   0.190   1.697 -0.2463 -0.5735 -0.0245
  172SOL  HW1    515   0.865   0.288   1.698  0.3550 -0.6361  1.0179
  172SOL  HW2    516   1.004   0.176   1.680 -0.6761 -1.9538  1.4901
  173SOL  OW     517   1.117   2.879   1.464 -0.4710 -0.0423  0.4844
  173SOL  HW1    518   1.017   2.886   1.464 -1.4953 -0.6913 -1.7342
  173SOL  HW2    519   1.142   2.782   1.448 -1.4841  0.0026  1.8912
  174SOL  OW     520   2.870   2.674   0.698  0.0171  0.0020 -0.1550
  174SOL  HW1    521   2.917   2.625   0.778  3.3805  0.9998  1.5074
  174SOL  HW2    522   2.769   2.685   0.710 -0.0523 -0.2697  2.5751
  175SOL  OW     523   0.931   0.892   1.502  0.2549  0.2459 -0.2434
  175SOL  HW1    524   0.985   0.956   1.448  0.1852 -1.7211  1.3713
  175SOL  HW2    525   0.874   0.835   1.439 -0.0155  0.7095 -0.1682
  176SOL  OW     526   0.898   1.746   0.362 -0.2159 -0.2261  0.0068
  176SOL  HW1    527   0.959   1.828   0.347  1.9553 -0.6105 -0.7270
  176SOL  HW2    528   0.918   1.710   0.456  0.3920 -0.9389 -0.3131
  177SOL  OW     529   0.797   0.783   1.250  0.3042 -0.4475  0.4446
  177SOL  HW1    530   0.864   0.712   1.224 -1.1517  0.9488  0.0062
  177SOL  HW2    531   0.794   0.852   1.172  0.0605 -0.8220 -0.2864
  178SOL  OW     532   1.972   1.589   0.394  0.3263 -0.7891 -0.0053
  178SOL  HW1    533   2.031   1.652   0.336 -2.1208 -0.8981  0.3593
  178SOL  HW2    534   1.968   1.622   0.486  2.8594 -2.2065  2.1276
  179SOL  OW     535   0.926   2.889   3.023  0.0724 -0.3932 -0.9333
  179SOL  HW1    536   0.986   2.830   3.081  1.1933  1.5428 -3.3122
  179SOL  HW2    537   0.861   2.830   2.971  1.7360 -0.5216 -3.2132
  180SOL  OW     538   1.603   1.440   2.173 -0.1147 -0.3693  0.2906
  180SOL  HW1    539   1.516   1.467   2.126 -2.2268  0.6485 -1.5183
  180SOL  HW2    540   1.606   1.335   2.179  0.4480 -2.5750 -0.3172
  181SOL  OW     541   0.929   0.535   1.447 -0.1208  0.3003  0.0598
  181SOL  HW1    542   1.022   0.572   1.479 -0.7035  0.3247 -0.4119
  181SOL  HW2    543   0.939   0.469   1.368  1.3907 -0.4467 -0.1984
  182SOL  OW     544   2.999   1.206   0.065 -0.2404  0.3442 -0.2348
  182SOL  HW1    545   3.079   1.170   0.018  2.6982  1.0686 -0.7254
  182SOL  HW2    546   2.946   1.134   0.106  0.1643  0.4714 -1.9926
  183SOL  OW     547   1.431   0.046   2.272  0.2096  0.1151 -0.5164
  183SOL  HW1    548   1.499   0.045   2.344 -2.2522  1.7477 -3.6885
  183SOL  HW2    549   1.384   3.056   2.269  2.1052 -0.1008  1.2717
  184SOL  OW     550   0.425   0.719   1.049 -0.5194 -0.1577 -0.5625
  184SOL  HW1    551   0.476   0.746   1.133 -1.2131  1.7336 -0.9728
  184SOL  HW2    552   0.403   0.808   1.004 -0.6481 -2.6459 -0.8729
  185SOL  OW     553   2.174   0.765   0.562 -0.4177 -0.2173 -0.1723
  185SOL  HW1    554   2.247   0.802   0.622  1.9411 -0.9441 -0.9295
  185SOL  HW2    555   2.191   0.662   0.552  0.1037 -1.4772  1.4354
  186SOL  OW     556   2.981   2.074   0.398  0.1108 -0.0323  0.5975
  186SOL  HW1    557   3.032   2.031   0.477  2.1070  0.6248  0.9492
  186SOL  HW2    558   3.043   2.137   0.350  1.8929  0.3301  2.6614
  187SOL  OW     559   2.037   1.752   3.009  0.2193  0.4460 -0.3176
  187SOL  HW1    560   1.966   1.782   3.083  1.0122  0.9948  2.3365
  187SOL  HW2    561   1.999   1.765   2.914 -0.6698  3.2704 -1.3208
  188SOL  OW     562   1.672   0.186   1.602  0.4521 -0.0478  0.3939
  188SOL  HW1    563   1.742   0.121   1.635  1.6584  1.9083  1.4402
  188SOL  HW2    564   1.592   0.190   1.669 -2.0193 -1.5533  2.4839
  189SOL  OW     565   2.325   1.430   2.157 -0.1575  0.0404 -0.4043
  189SOL  HW1    566   2.319   1.511   2.214 -1.0465 -0.2450  2.2630
  189SOL  HW2    567   2.264   1.358   2.191 -1.6177  0.0492  1.4610
  190SOL  OW     568   0.832   2.813   2.184 -0.5869 -0.1035  0.4927
  190SOL  HW1    569   0.744   2.848   2.223 -0.5306 -1.5545 -0.9012
  190SOL  HW2    570   0.910   2.811   2.252 -1.4905 -0.1905 -0.1467
  191SOL  OW     571   2.281   0.582   1.230  0.5695  0.1524 -0.7247
  191SOL  HW1    572   2.249   0.508   1.169  1.2701  0.7081  2.3394
  191SOL  HW2    573   2.348   0.645   1.185 -0.4950  4.3882 -0.0778
  192SOL  OW     574   2.204   0.093   1.089  0.0710  0.0535 -0.1099
  192SOL  HW1    575   2.239   0.091   1.188  1.4476 -0.5377  2.9361
  192SOL  HW2    576   2.165   0.004   1.063  2.0891  0.2514 -0.2560
  193SOL  OW     577   1.515   0.405   0.153  0.1158 -0.0783  0.5737
  193SOL  HW1    578   1.505   0.451   0.062  1.2401  0.9963 -1.1395
  193SOL  HW2    579   1.443   0.327   0.158  1.2180  1.8940 -0.8446
  194SOL  OW     580   1.626   2.375   1.442 -0.2157  0.1713 -0.1223
  194SOL  HW1    581   1.533   2.331   1.433  0.0948 -0.8689  1.8787
  194SOL  HW2    582   1.694   2.308   1.476 -1.0125 -0.0184  1.5479
  195SOL  OW     583   2.293   0.680   0.901 -0.5293  0.0749  0.0484
  195SOL  HW1    584   2.365   0.706   0.972 -0.6079  1.2134 -0.0395
  195SOL  HW2    585   2.318   0.725   0.812 -0.1799 -3.5027  0.2229
  196SOL  OW     586   0.626   2.581   1.850 -0.0323 -0.2614  0.2175
  196SOL  HW1    587   0.545   2.586   1.909 -2.8133  0.1613 -1.7771
  196SOL  HW2    588   0.705   2.606   1.910  0.8302 -0.5534  1.6433
  197SOL  OW     589   2.648   0.438   2.343 -0.0211  1.0498 -0.2771
  197SOL  HW1    590   2.626   0.395   2.256 -0.4157 -1.0852 -0.9406
  197SOL  HW2    591   2.555   0.437   2.393  0.5258  3.8157 -3.4678
  198SOL  OW     592   2.008   0.603   2.842 -0.2267  0.3288 -0.0189
  198SOL  HW1    593   2.076   0.672   2.857  1.6087  0.1299  0.4592
  198SOL  HW2    594   1.968   0.580   2.929 -0.0853  2.0019 -2.4644
  199SOL  OW     595   2.925   1.075   1.897  0.0062  0.0104 -0.0389
  199SOL  HW1    596   2.865   1.156   1.899 -1.1035  0.6691 -1.8749
  199SOL  HW2    597   2.970   1.054   1.984  2.4765  0.1181 -0.2747
  200SOL  OW     598   1.957   2.795   2.742  0.5723  0.0328 -0.5006
  200SOL  HW1    599   2.041   2.735   2.759  1.8176 -1.4584 -1.5252
  200SOL  HW2    600   1.872   2.762   2.787  3.9260 -2.3405 -0.8325
  201SOL  OW     601   2.705   0.038   1.671  0.3541 -0.0176 -0.4235
  201SOL  HW1    602   2.803   0.028   1.689 -1.2312  0.6631 -0.2979
  201SOL  HW2    603   2.671   3.038   1.662 -2.4068  0.2092  0.0707
  202SOL  OW     604   2.594   2.692   0.675 -0.1583  0.5202 -0.3799
  202SOL  HW1    605   2.593   2.661   0.577 -1.7418 -1.0831 -0.1457
  202SOL  HW2    606   2.567   2.791   0.683 -0.7014 -0.3565 -0.1764
  203SOL  OW     607   1.872   0.605   3.084 -0.0452 -0.0085  0.1951
  203SOL  HW1    608   1.845   0.702   0.017  0.8421 -0.1092  1.8797
  203SOL  HW2    609   1.831   0.532   0.047  1.3449 -2.3006  0.3742
  204SOL  OW     610   2.943   2.447   2.291  0.5392 -0.6041  0.1223
  204SOL  HW1    611   2.905   2.468   2.197  2.7242 -0.9268 -1.2008
  204SOL  HW2    612   2.981   2.350   2.293  2.9233  0.1944 -3.1409
  205SOL  OW     613   0.534   1.080   0.668  0.7041 -0.6978 -0.0173
  205SOL  HW1    614   0.547   1.008   0.739  3.8934 -0.6181 -1.1701
  205SOL  HW2    615   0.507   1.039   0.579  1.6411  0.2191 -3.1104
  206SOL  OW     616   0.998   1.045   2.320  0.2145 -0.3565 -0.1205
  206SOL  HW1    617   0.999   1.116   2.245  0.9232 -0.3845 -3.7379
  206SOL  HW2    618   1.058   1.075   2.397 -2.1374 -1.1914 -1.5474
  207SOL  OW     619   0.864   2.641   1.986 -0.1184  0.9220  0.3150
  207SOL  HW1    620   0.939   2.660   1.918  0.0006  1.2559  0.5871
  207SOL  HW2    621   0.863   2.713   2.057  0.0119 -0.0832 -2.6111
  208SOL  OW     622   2.592   0.036   0.458 -0.1541 -0.8439  0.2692
  208SOL  HW1    623   2.657   0.096   0.506 -2.0362 -1.2454  0.5341
  208SOL  HW2    624   2.632   3.092   0.373 -2.9976 -1.4339 -1.0313
  209SOL  OW     625   1.542   1.428   0.642  0.0589  0.9818 -0.0802
  209SOL  HW1    626   1.501   1.361   0.712 -2.0188  1.3726 -0.3339
  209SOL  HW2    627   1.645   1.424   0.648 -1.7923 -1.0417  0.4213
  210SOL  OW     628   1.539   1.077   0.631 -0.3617  0.3099 -0.3132
  210SOL  HW1    629   1.616   1.042   0.690  0.5514 -0.6656  0.6818
  210SOL  HW2    630   1.479   1.147   0.676  0.3679 -2.9212  0.3551
  211SOL  OW     631   0.786   1.918   2.860 -0.0448  0.3296  0.1296
  211SOL  HW1    632   0.803   1.891   2.763 -0.9184  2.0565  0.1760
  211SOL  HW2    633   0.764   1.833   2.909  1.2779  0.8991 -2.0489
  212SOL  OW     634   1.721   1.876   0.568  0.3244  0.3381 -0.1739
  212SOL  HW1    635   1.818   1.884   0.594  0.7465  2.4796  0.7562
  212SOL  HW2    636   1.668   1.963   0.569  0.2721 -0.2128  1.7776
  213SOL  OW     637   2.448   2.350   0.006 -0.3479 -0.4432 -0.2883
  213SOL  HW1    638   2.460   2.450   0.019  0.5529  0.3002  0.6829
  213SOL  HW2    639   2.526   2.297   0.044 -0.8729  0.4257  2.1801
  214SOL  OW     640   1.054   2.490   2.318  0.1807  0.7702 -0.1236
  214SOL  HW1    641   1.088   2.494   2.222 -2.6260  1.2803  0.7085
  214SOL  HW2    642   1.111   2.432   2.382 -1.3105  0.4966  2.9347
  215SOL  OW     643   2.457   1.512   0.574 -0.0746 -0.2013  0.4030
  215SOL  HW1    644   2.488   1.608   0.566  0.9054 -1.9628  0.4738
  215SOL  HW2    645   2.510   1.447   0.518  0.1042 -1.3505  1.2068
  216SOL  OW     646   2.297   2.920   2.242 -0.1304 -0.4485 -0.9026
  216SOL  HW1    647   2.225   2.975   2.195 -0.0415 -1.5266  0.3336
  216SOL  HW2    648   2.391   2.955   2.225  1.8854  0.1864  0.6053
  217SOL  OW     649   2.627   1.652   1.060  0.2740 -0.2434  0.2402
  217SOL  HW1    650   2.690   1.590   1.011  1.4218 -1.3982 -0.1284
  217SOL  HW2    651   2.578   1.713   0.993  2.3961  0.3377 -0.3730
  218SOL  OW     652   0.918   2.595   1.381 -0.4200 -0.4023  1.0345
  218SOL  HW1    653   0.906   2.527   1.457  0.9846  2.2742  1.9695
  218SOL  HW2    654   0.887   2.691   1.414 -0.6685  1.0426  0.8550
  219SOL  OW     655   2.418   1.898   0.020 -0.4083 -0.8064  0.0613
  219SOL  HW1    656   2.509   1.931   0.057 -0.1113  0.0516 -0.1687
  219SOL  HW2    657   2.342   1.935   0.081  1.5734  4.1110 -0.0732
  220SOL  OW     658   1.836   2.827   0.273  0.6263 -0.5089  0.3433
  220SOL  HW1    659   1.903   2.754   0.290  0.6088 -0.8395 -0.8138
  220SOL  HW2    660   1.881   2.921   0.262  0.9172  1.7271  0.8310
  221SOL  OW     661   2.656   1.535   0.062  0.2840  0.3415  0.1795
  221SOL  HW1    662   2.624   1.456   0.118  2.1993  1.7534  0.1908
  221SOL  HW2    663   2.574   1.574   0.018  0.2272  1.5394 -4.1650
  222SOL  OW     664   1.164   1.260   1.062  0.1517 -0.0951  0.0051
  222SOL  HW1    665   1.105   1.175   1.048 -3.5135  0.0827 -2.0070
  222SOL  HW2    666   1.215   1.255   1.149  0.3232  2.8044 -0.2261
  223SOL  OW     667   1.002   0.157   2.235 -0.0735 -0.3215 -0.3211
  223SOL  HW1    668   1.020   0.107   2.323 -0.0535 -0.1532 -2.6601
  223SOL  HW2    669   0.964   0.090   2.166 -0.9506  0.0271 -1.5210
  224SOL  OW     670   0.611   0.403   1.204 -0.2348  0.2324  0.0224
  224SOL  HW1    671   0.657   0.317   1.229 -3.1933 -1.8216  1.0837
  224SOL  HW2    672   0.614   0.468   1.282  0.1440 -0.0011 -0.1419
  225SOL  OW     673   0.567   0.324   1.606  0.0048 -0.1568  0.4702
  225SOL  HW1    674   0.645   0.387   1.622  1.5911  1.2661  2.6655
  225SOL  HW2    675   0.542   0.271   1.695  1.4689 -1.4251 -0.0643
  226SOL  OW     676   1.296   1.898   0.771  1.3250 -0.0656  0.6274
  226SOL  HW1    677   1.213   1.838   0.778 -1.3764 -0.7850  0.6100
  226SOL  HW2    678   1.379   1.851   0.729  3.3324 -0.1973  2.0969
  227SOL  OW     679   0.551   1.970   1.050  0.2655  0.8580  0.1693
  227SOL  HW1    680   0.522   1.930   0.961 -0.7515  0.5900 -0.7052
  227SOL  HW2    681   0.519   2.066   1.061 -2.4771 -2.0641  0.1950
  228SOL  OW     682   0.438   2.557   0.192  0.0685 -0.1928  0.3500
  228SOL  HW1    683   0.380   2.606   0.263  0.9006 -1.0972 -1.4595
  228SOL  HW2    684   0.493   2.482   0.235  0.6507  2.7236 -1.7385
  229SOL  OW     685   2.796   0.297   0.417  0.1679  0.8586  0.6431
  229SOL  HW1    686   2.779   0.388   0.375  1.0582 -0.4134 -0.7390
  229SOL  HW2    687   2.753   0.293   0.507  0.9120  2.8959  0.1845
  230SOL  OW     688   1.746   0.990   0.799 -0.8414 -0.5420  0.7221
  230SOL  HW1    689   1.809   1.025   0.873  0.3689  0.0177 -2.0445
  230SOL  HW2    690   1.801   0.952   0.722  1.3327 -0.3473 -0.5769
  231SOL  OW     691   1.550   1.240   0.385  0.6801 -0.0961 -0.2038
  231SOL  HW1    692   1.604   1.180   0.322 -1.0272 -1.2044 -2.5039
  231SOL  HW2    693   1.549   1.198   0.479  1.8879  1.4631 -0.3084
  232SOL  OW     694   2.025   2.199   1.327  0.1647 -0.3929 -0.2598
  232SOL  HW1    695   2.120   2.207   1.367  0.2567  1.2510  1.4539
  232SOL  HW2    696   2.011   2.273   1.260 -1.4893  1.6158  2.3313
  233SOL  OW     697   0.263   2.751   1.874  0.7156 -0.1766  0.0074
  233SOL  HW1    698   0.172   2.751   1.919  0.5401 -0.1772 -0.5544
  233SOL  HW2    699   0.331   2.692   1.919  0.5976 -0.2775 -1.9474
  234SOL  OW     700   0.713   0.418   1.973  0.5838 -0.0296  0.4534
  234SOL  HW1    701   0.755   0.387   2.060 -0.6964 -0.2748 -0.9267
  234SOL  HW2    702   0.651   0.345   1.933  1.2408  2.4130 -0.9361
  235SOL  OW     703   2.771   1.277   1.922 -0.1887  0.0249 -0.4245
  235SOL  HW1    704   2.707   1.258   1.997  1.3864 -2.6329 -1.3916
  235SOL  HW2    705   2.743   1.360   1.871 -0.6845 -1.1056 -0.0359
  236SOL  OW     706   1.517   2.759   1.624  0.2397  0.5306  0.1379
  236SOL  HW1    707   1.523   2.805   1.535  0.4317 -2.2124 -4.2485
  236SOL  HW2    708   1.566   2.821   1.687 -1.4203  0.1048 -4.5959
  237SOL  OW     709   0.432   2.072   2.233  0.3373 -0.3233 -0.7702
  237SOL  HW1    710   0.446   2.161   2.284  0.1954 -0.6993 -0.2455
  237SOL  HW2    711   0.364   2.083   2.156 -0.3556  0.9557  0.3618
  238SOL  OW     712   1.133   1.417   2.443  0.3804 -0.0091 -0.4252
  238SOL  HW1    713   1.030   1.392   2.461  0.5784  3.2171 -0.2732
  238SOL  HW2    714   1.152   1.419   2.346 -0.5525 -2.4173  1.2930
  239SOL  OW     715   1.214   1.958   2.525  0.1803 -0.1242 -0.3690
  239SOL  HW1    716   1.213   1.862   2.486  0.0844 -1.7515 -0.0542
  239SOL  HW2    717   1.297   2.009   2.495 -1.2234 -0.7924 -0.0506
  240SOL  OW     718   2.661   1.960   0.127 -0.6735 -0.4794 -0.0039
  240SOL  HW1    719   2.734   1.919   0.067 -0.3541  2.4489  0.0724
  240SOL  HW2    720   2.683   1.966   0.227 -0.8484 -2.2683  1.5823
  241SOL  OW     721   0.148   0.899   0.176  0.4473  0.4717  0.6869
  241SOL  HW1    722   0.090   0.856   0.251 -0.7555  2.4715  0.2353
  241SOL  HW2    723   0.227   0.839   0.164 -3.2940  1.7943  0.1710
  242SOL  OW     724   0.864   2.869   1.484  0.2851  0.1701 -0.1210
  242SOL  HW1    725   0.848   2.970   1.478  1.3986 -0.6004 -2.3229
  242SOL  HW2    726   0.793   2.822   1.544  1.0398  1.6872 -0.4984
  243SOL  OW     727   0.412   2.560   2.000  0.7225 -0.1892  0.3888
  243SOL  HW1    728   0.415   2.584   2.099  0.7514 -1.7131  0.0493
  243SOL  HW2    729   0.353   2.482   1.979 -0.6882  2.0974 -0.9894
  244SOL  OW     730   1.866   0.265   2.278  0.7329 -0.4862  0.2512
  244SOL  HW1    731   1.822   0.331   2.342  1.6432  1.5448  0.5175
  244SOL  HW2    732   1.935   0.214   2.331  1.5326 -0.6601 -0.2416
  245SOL  OW     733   1.277   2.492   1.119 -0.2575  0.1022  0.2523
  245SOL  HW1    734   1.292   2.402   1.154  0.6581 -2.3952 -1.4580
  245SOL  HW2    735   1.340   2.512   1.041  0.4279 -0.3037 -2.9646
  246SOL  OW     736   1.400   2.946   0.078 -1.0043  0.0736 -0.0627
  246SOL  HW1    737   1.360   2.995   0.156  0.5442  0.3574 -0.4059
  246SOL  HW2    738   1.326   2.954   0.005 -3.1769 -1.5498 -0.1134
  247SOL  OW     739   1.289   0.267   2.868  0.3623  0.0892 -0.4986
  247SOL  HW1    740   1.214   0.285   2.935 -1.0615 -0.7396  0.6369
  247SOL  HW2    741   1.298   0.344   2.803  0.7139  1.6902 -2.3595
  248SOL  OW     742   2.899   2.882   1.853  0.3167 -0.0862  0.1993
  248SOL  HW1    743   2.815   2.849   1.900 -0.2626 -1.4365  0.1632
  248SOL  HW2    744   2.898   2.875   1.752 -2.9056 -0.3701 -0.3975
  249SOL  OW     745   0.727   0.353   0.540  0.0850  0.0523 -0.3035
  249SOL  HW1    746   0.710   0.354   0.441 -1.4028 -1.3731 -0.5547
  249SOL  HW2    747   0.825   0.345   0.556 -2.3924  1.2402 -0.6917
  250SOL  OW     748   2.164   0.056   2.162  0.1558 -0.0534 -0.4953
  250SOL  HW1    749   2.119   0.053   2.257  0.7827  0.2860 -3.6156
  250SOL  HW2    750   2.250   0.109   2.166 -0.0138 -0.5191 -1.2291
  251SOL  OW     751   1.234   0.237   0.150  0.0626 -0.4322  0.2916
  251SOL  HW1    752   1.221   0.302   0.226 -0.2860  1.3068 -0.3317
  251SOL  HW2    753   1.175   0.260   0.071  0.4327 -0.9115 -0.0602
  252SOL  OW     754   1.563   2.491   2.245  0.6830 -0.2696 -0.6400
  252SOL  HW1    755   1.562   2.590   2.250 -0.7944 -1.0426  1.9900
  252SOL  HW2    756   1.506   2.458   2.169 -2.0053  0.4971 -4.2760
  253SOL  OW     757   2.983   2.487   0.524  0.7211 -0.2968 -0.6233
  253SOL  HW1    758   2.914   2.551   0.569  0.0948 -0.8159 -0.1532
  253SOL  HW2    759   3.000   2.403   0.580  0.6798  1.7389 -1.5497
  254SOL  OW     760   1.854   0.908   1.853 -0.2879 -0.4165  0.4459
  254SOL  HW1    761   1.830   0.849   1.774 -0.3095  0.3475 -0.9509
  254SOL  HW2    762   1.942   0.952   1.836  0.7236 -0.4595  1.6615
  255SOL  OW     763   1.032   2.683   1.756  0.1109 -0.2288  0.7245
  255SOL  HW1    764   0.955   2.636   1.706  1.2434 -1.3953  3.9652
  255SOL  HW2    765   1.122   2.662   1.711  1.8969  1.9719  2.2616
  256SOL  OW     766   1.874   1.497   1.938  0.0096  0.5353  0.1817
  256SOL  HW1    767   1.789   1.557   1.929 -2.2476 -1.1463 -3.3682
  256SOL  HW2    768   1.940   1.520   1.864  1.0440  1.7614 -0.0075
  257SOL  OW     769   0.203   2.339   2.303  0.4640 -0.0460 -0.0709
  257SOL  HW1    770   0.148   2.384   2.374 -2.0085  1.4935 -0.3479
  257SOL  HW2    771   0.298   2.318   2.337 -2.6609 -0.7765 -2.6309
  258SOL  OW     772   0.494   2.590   0.960 -0.1751 -0.2184 -0.6673
  258SOL  HW1    773   0.489   2.552   0.864 -4.0906  0.3598 -3.8685
  258SOL  HW2    774   0.411   2.607   1.004 -1.1765  0.4421 -0.7502
  259SOL  OW     775   2.015   2.885   2.494 -0.0655 -0.6639 -0.3127
  259SOL  HW1    776   1.964   2.856   2.577  0.4606  0.4903 -1.2633
  259SOL  HW2    777   2.102   2.838   2.500 -0.4247 -0.9372 -0.4642
  260SOL  OW     778   3.086   0.719   1.642 -0.1543  0.1767 -0.3160
  260SOL  HW1    779   3.028   0.639   1.661 -2.4714 -0.1810 -1.2624
  260SOL  HW2    780   0.051   0.700   1.560  0.2119  4.7046  1.0982
  261SOL  OW     781   1.241   0.369   1.876 -0.4423  0.1467  0.5525
  261SOL  HW1    782   1.147   0.418   1.876  3.2764 -1.0471 -0.0523
  261SOL  HW2    783   1.267   0.331   1.968 -1.1573 -0.2750 -0.4201
  262SOL  OW     784   1.287   0.246   2.135 -0.1814  0.2324 -0.2336
  262SOL  HW1    785   1.193   0.261   2.165 -0.3156 -1.0078 -0.7400
  262SOL  HW2    786   1.326   0.165   2.191  0.6649  0.2719 -1.7597
  263SOL  OW     787   0.689   2.205   0.114 -0.0511 -0.3515  0.5188
  263SOL  HW1    788   0.661   2.194   0.017 -1.5073  0.1504 -1.2489
  263SOL  HW2    789   0.793   2.206   0.124 -0.5950 -0.7869  3.9773
  264SOL  OW     790   1.644   1.992   0.963 -0.2980  0.0847 -0.1883
  264SOL  HW1    791   1.682   1.895   0.953  0.9215 -2.7416  0.3891
  264SOL  HW2    792   1.680   2.053   0.891 -0.8121 -0.8956  0.4230
  265SOL  OW     793   0.824   2.626   0.190 -0.2774 -0.4759  0.2049
  265SOL  HW1    794   0.782   2.661   0.276  0.9571 -0.7861  1.2463
  265SOL  HW2    795   0.752   2.610   0.117 -1.1658 -0.2910 -0.3790
  266SOL  OW     796   2.951   0.978   1.646 -0.1156  0.3945  0.1970
  266SOL  HW1    797   2.962   1.025   1.738  0.0324 -0.2467 -0.1921
  266SOL  HW2    798   2.994   0.886   1.638 -3.3671  1.2259  0.2307
  267SOL  OW     799   0.317   1.503   2.985  0.2663 -0.2050  0.0209
  267SOL  HW1    800   0.253   1.557   3.038  0.4611 -0.9572  0.1683
  267SOL  HW2    801   0.338   1.551   2.898 -2.5120 -0.2394 -2.2119
  268SOL  OW     802   1.455   0.617   0.380  0.3674 -0.2187  0.0588
  268SOL  HW1    803   1.534   0.596   0.322 -1.3281  0.2653  0.0177
  268SOL  HW2    804   1.456   0.712   0.414 -1.0145 -1.0985  0.8693
  269SOL  OW     805   2.113   0.684   1.887 -0.6861  0.4510  0.6253
  269SOL  HW1    806   2.181   0.629   1.832  1.8171  1.9054 -0.1209
  269SOL  HW2    807   2.035   0.629   1.921 -0.6795 -1.3096  0.0955
  270SOL  OW     808   2.658   0.475   0.910 -0.1610  0.1375  0.2656
  270SOL  HW1    809   2.619   0.510   0.825 -0.1415  0.7217  0.9408
  270SOL  HW2    810   2.748   0.435   0.894  2.9028  3.7167 -0.8275
  271SOL  OW     811   2.558   1.392   1.428  0.1680 -0.9336  0.9605
  271SOL  HW1    812   2.505   1.365   1.510 -1.0525 -0.2109  1.1470
  271SOL  HW2    813   2.501   1.436   1.354  1.3771 -0.8473 -1.6627
  272SOL  OW     814   2.814   1.850   2.226 -0.1747 -0.3600  0.0271
  272SOL  HW1    815   2.776   1.812   2.137  1.1574  0.8342 -0.1779
  272SOL  HW2    816   2.885   1.790   2.265 -0.7349  0.2760  1.0191
  273SOL  OW     817   0.760   2.957   0.116  0.0901 -0.5185  0.5929
  273SOL  HW1    818   0.791   2.930   0.209  1.5217 -0.0203 -0.7424
  273SOL  HW2    819   0.833   2.925   0.045  0.4704 -1.1422  1.4454
  274SOL  OW     820   0.777   1.980   0.679  0.5954  0.0366 -0.6813
  274SOL  HW1    821   0.717   2.058   0.695 -0.3063 -0.6943  1.1187
  274SOL  HW2    822   0.842   1.968   0.759  1.3828  0.7629 -1.1625
  275SOL  OW     823   1.438   2.099   2.418 -0.0269 -0.2826  0.3856
  275SOL  HW1    824   1.526   2.070   2.382  0.7950 -1.3383  2.5639
  275SOL  HW2    825   1.442   2.197   2.447  1.6306  4.6845 -0.1397
  276SOL  OW     826   2.644   1.134   1.339  0.8807  0.2635 -0.5568
  276SOL  HW1    827   2.691   1.075   1.406  2.2801  0.3709  1.2893
  276SOL  HW2    828   2.622   1.222   1.381  2.4681  0.0420 -1.3800
  277SOL  OW     829   2.978   0.071   0.547 -0.0616  0.4905  0.2620
  277SOL  HW1    830   2.958   3.076   0.579 -0.6943  1.3186 -0.4961
  277SOL  HW2    831   2.904   0.120   0.497  1.5101 -0.0504 -0.7588
  278SOL  OW     832   1.703   2.766   2.865 -0.2615  0.3403  0.4551
  278SOL  HW1    833   1.696   2.764   2.966 -2.4969 -1.1872 -1.4340
  278SOL  HW2    834   1.641   2.698   2.817  1.4362  0.9560  0.4393
  279SOL  OW     835   1.321   2.922   1.236  0.2089  0.1910 -0.5165
  279SOL  HW1    836   1.241   2.941   1.293  0.6718  4.5463 -0.3398
  279SOL  HW2    837   1.294   2.926   1.141  0.0381 -0.8774  0.4188
  280SOL  OW     838   1.115   0.588   0.777  0.7282  0.0352  0.6810
  280SOL  HW1    839   1.023   0.547   0.794 -1.4749  0.4135 -2.9186
  280SOL  HW2    840   1.120   0.688   0.792  0.0184  2.0164  3.0619
  281SOL  OW     841   1.818   1.394   0.296 -0.7893 -0.0418 -0.3029
  281SOL  HW1    842   1.733   1.450   0.280 -1.4609  2.4277 -0.7677
  281SOL  HW2    843   1.891   1.463   0.315  1.9531  0.5099 -0.7384
  282SOL  OW     844   0.093   1.263   0.271  0.0155 -0.0269 -0.0670
  282SOL  HW1    845   0.031   1.207   0.208  0.8903  2.0035 -1.2188
  282SOL  HW2    846   0.181   1.286   0.224  4.3208  0.4524  1.3731
  283SOL  OW     847   1.488   2.429   3.075 -0.1991 -0.3929 -0.2962
  283SOL  HW1    848   1.432   2.381   0.049  0.2056  1.1980  1.8526
  283SOL  HW2    849   1.581   2.459   0.010  1.0932  2.6514  0.4592
  284SOL  OW     850   0.327   0.467   2.636 -0.0706 -0.2208  0.8447
  284SOL  HW1    851   0.261   0.492   2.565 -1.0540  0.1557 -1.4434
  284SOL  HW2    852   0.421   0.485   2.610  0.9365 -1.4247  1.6808
  285SOL  OW     853   2.198   0.803   0.297 -0.0868 -0.0789  0.2244
  285SOL  HW1    854   2.298   0.787   0.284  0.4561  1.6414  2.0147
  285SOL  HW2    855   2.169   0.796   0.394 -0.4696  1.0230  1.7433
  286SOL  OW     856   1.511   2.052   1.769 -0.2038 -0.2211 -0.2001
  286SOL  HW1    857   1.587   2.002   1.724 -2.9056 -0.2416 -0.5363
  286SOL  HW2    858   1.544   2.080   1.861 -1.2754  0.5434 -0.0785
  287SOL  OW     859   2.460   2.634   1.089 -0.1995  0.0129  0.1122
  287SOL  HW1    860   2.402   2.561   1.051  1.7654 -1.2695  0.6728
  287SOL  HW2    861   2.461   2.718   1.034  0.4798 -1.0736 -1.2892
  288SOL  OW     862   0.053   2.124   1.626 -0.4461 -0.4432 -0.3847
  288SOL  HW1    863   3.080   2.071   1.685 -1.2458  1.1191 -1.9292
  288SOL  HW2    864   0.087   2.201   1.679  0.4846 -2.6530 -1.0590
  289SOL  OW     865   1.904   1.122   0.981  0.4166  0.3694 -0.1170
  289SOL  HW1    866   1.871   1.217   0.960  0.0622 -0.1401 -0.0448
  289SOL  HW2    867   2.004   1.113   0.981 -0.5614  2.7918  0.0763
  290SOL  OW     868   0.532   2.314   1.781  0.2972 -0.3572 -0.1296
  290SOL  HW1    869   0.568   2.263   1.861  2.2587 -0.2238 -1.8076
  290SOL  HW2    870   0.564   2.411   1.799 -1.2981 -1.7470  0.1018
  291SOL  OW     871   2.538   2.765   0.239  0.1588  0.0463 -0.3880
  291SOL  HW1    872   2.553   2.697   0.315  3.4032 -0.3367 -1.3976
  291SOL  HW2    873   2.515   2.717   0.155 -0.5152 -1.5813  1.1623
  292SOL  OW     874   0.550   2.774   1.384  0.2549  0.0458  0.2545
  292SOL  HW1    875   0.554   2.831   1.467 -0.2351  2.4904 -4.0918
  292SOL  HW2    876   0.564   2.677   1.417 -1.1238 -0.1755 -1.6474
  293SOL  OW     877   1.776   1.741   0.898 -0.6786  0.2474  0.2550
  293SOL  HW1    878   1.815   1.711   0.813 -0.1094 -0.9030  0.8710
  293SOL  HW2    879   1.687   1.698   0.921  0.5720 -0.5099 -0.5204
  294SOL  OW     880   0.246   0.384   2.268 -0.1252  0.5031  0.1356
  294SOL  HW1    881   0.155   0.345   2.284 -2.0866 -0.1097 -1.1080
  294SOL  HW2    882   0.255   0.414   2.169  0.6242  0.3240  0.3507
  295SOL  OW     883   0.807   1.138   0.494 -0.5090 -0.5620  0.4283
  295SOL  HW1    884   0.871   1.189   0.428 -0.5482 -1.0871  0.5582
  295SOL  HW2    885   0.732   1.197   0.522 -1.9270  0.8257  1.0638
  296SOL  OW     886   1.830   0.649   0.982  0.0514  0.0883 -0.3992
  296SOL  HW1    887   1.850   0.731   1.042  1.3227 -1.1600 -2.5268
  296SOL  HW2    888   1.752   0.659   0.918  0.4312 -1.6346 -0.4966
  297SOL  OW     889   2.333   0.872   2.547  0.7617  0.1913  0.0622
  297SOL  HW1    890   2.284   0.783   2.520 -0.4804 -1.0447  2.6614
  297SOL  HW2    891   2.265   0.949   2.552 -0.5187 -1.4491  0.3527
  298SOL  OW     892   1.335   0.266   2.501  0.0682 -0.2395  0.1809
  298SOL  HW1    893   1.266   0.308   2.435  1.8989  0.2573 -0.5501
  298SOL  HW2    894   1.284   0.201   2.559 -0.8737 -1.0797  1.4072
  299SOL  OW     895   1.790   0.486   2.432  0.1097  0.2721 -0.1148
  299SOL  HW1    896   1.774   0.529   2.522  0.4573 -1.5243  2.0606
  299SOL  HW2    897   1.711   0.514   2.370 -0.0684 -1.9072  1.0562
  300SOL  OW     898   2.460   0.016   1.849 -0.2988 -0.2596 -0.7457
  300SOL  HW1    899   2.398   3.035   1.820 -0.7971  0.2712  3.4636
  300SOL  HW2    900   2.535   0.027   1.784  0.8716 -0.9485 -1.4232
  301SOL  OW     901   2.363   1.034   2.024 -0.2128 -0.4098  0.0343
  301SOL  HW1    902   2.446   0.985   1.988 -1.5544 -1.5482  0.3356
  301SOL  HW2    903   2.290   0.965   2.048  4.0032 -0.5634 -0.9607
  302SOL  OW     904   3.084   2.897   2.241 -0.4058 -0.4112  0.2081
  302SOL  HW1    905   3.010   2.943   2.291 -0.7971 -0.6482 -1.1522
  302SOL  HW2    906   0.028   2.822   2.296  0.8776 -0.9894 -0.5062
  303SOL  OW     907   1.113   2.219   1.637  0.0268 -0.0864  0.1207
  303SOL  HW1    908   1.013   2.204   1.648  0.8052  1.0843  2.2980
  303SOL  HW2    909   1.162   2.178   1.555  2.6533 -2.9636 -2.3229
  304SOL  OW     910   2.988   2.887   0.570 -0.4164 -0.4542 -0.1271
  304SOL  HW1    911   2.948   2.816   0.626  1.6054  1.8062 -2.6386
  304SOL  HW2    912   2.978   2.869   0.467  0.3038 -0.5252 -1.4991
  305SOL  OW     913   1.623   0.749   0.835 -0.2371 -0.5219  0.0432
  305SOL  HW1    914   1.523   0.752   0.855 -1.7174 -0.0217 -1.4492
  305SOL  HW2    915   1.660   0.844   0.821 -0.3291  0.0220 -0.5325
  306SOL  OW     916   1.067   2.386   2.878  0.1925 -0.0967 -0.7702
  306SOL  HW1    917   0.993   2.318   2.893  0.5036  1.2543 -0.5754
  306SOL  HW2    918   1.030   2.465   2.832  3.6382 -2.3813  0.0466
  307SOL  OW     919   0.520   0.942   1.639 -0.1107  0.1069  0.2649
  307SOL  HW1    920   0.425   0.901   1.636  1.1637 -1.1231 -0.6202
  307SOL  HW2    921   0.532   0.993   1.723 -0.4463  1.8492  1.3681
  308SOL  OW     922   0.779   0.022   1.469  0.0324  0.0943  0.6514
  308SOL  HW1    923   0.696   3.059   1.484 -1.5610  2.2709  1.3515
  308SOL  HW2    924   0.796   0.095   1.537  0.8651 -3.3713  1.7286
  309SOL  OW     925   2.462   0.829   0.256 -0.2883 -0.2041 -0.4212
  309SOL  HW1    926   2.481   0.876   0.343 -0.3225  1.2425 -0.9057
  309SOL  HW2    927   2.487   0.884   0.170  0.3348  1.6222 -0.4236
  310SOL  OW     928   1.790   0.885   0.014 -0.6811 -0.3720 -0.3551
  310SOL  HW1    929   1.687   0.890   0.017 -0.7520  0.1241  0.7676
  310SOL  HW2    930   1.822   0.905   3.016  0.2292  1.2631 -1.1225
  311SOL  OW     931   1.499   2.346   2.837  0.0471 -1.0129 -0.3151
  311SOL  HW1    932   1.502   2.378   2.934  0.7718 -2.7982  0.6908
  311SOL  HW2    933   1.409   2.300   2.821  0.2163 -0.9683  0.1402
  312SOL  OW     934   2.815   0.093   0.109 -0.3816  0.3717 -0.1884
  312SOL  HW1    935   2.782   0.001   0.137 -2.2919  0.2349 -1.1145
  312SOL  HW2    936   2.911   0.112   0.131  2.5494 -0.9170  0.3658
  313SOL  OW     937   0.430   0.683   0.497  0.1440  0.6579 -0.1581
  313SOL  HW1    938   0.502   0.622   0.542 -0.4837 -1.2611  0.9829
  313SOL  HW2    939   0.370   0.726   0.567 -2.3338  1.7512  0.8416
  314SOL  OW     940   2.840   1.004   0.145  0.2649  0.1232  0.1055
  314SOL  HW1    941   2.767   1.042   0.086  3.7387  1.0124 -2.8429
  314SOL  HW2    942   2.876   0.926   0.089 -2.0707 -0.5382  0.1122
  315SOL  OW     943   1.846   0.403   1.844  0.0616  0.4888  0.1886
  315SOL  HW1    944   1.787   0.453   1.910 -1.3824 -3.4434 -1.4723
  315SOL  HW2    945   1.826   0.430   1.745 -0.7480  0.0930 -2.3602
  316SOL  OW     946   0.566   1.135   0.936  0.3343  0.2962  0.8283
  316SOL  HW1    947   0.524   1.228   0.954 -1.0877 -0.3015 -1.3204
  316SOL  HW2    948   0.602   1.131   0.842  0.6381 -0.1056  2.6153
  317SOL  OW     949   0.249   0.552   3.070 -0.3695 -0.2800  0.2650
  317SOL  HW1    950   0.309   0.469   3.067  1.3171  2.9421  2.8519
  317SOL  HW2    951   0.218   0.575   0.068 -0.8404  2.2043  0.6019
  318SOL  OW     952   2.731   0.283   1.294  0.4491 -0.1425 -0.1716
  318SOL  HW1    953   2.646   0.300   1.238 -1.0762 -1.0384 -1.8289
  318SOL  HW2    954   2.711   0.253   1.391 -0.6840 -1.9293  1.3060
  319SOL  OW     955   1.282   1.677   0.353 -0.9052 -0.7419  0.0942
  319SOL  HW1    956   1.328   1.746   0.411  0.2475 -1.0266  1.5694
  319SOL  HW2    957   1.203   1.718   0.301  1.8834 -2.0863 -0.4159
  320SOL  OW     958   1.265   2.214   1.140 -0.0667 -0.7632  0.9685
  320SOL  HW1    959   1.171   2.235   1.114  0.8986 -0.6606 -0.4550
  320SOL  HW2    960   1.313   2.139   1.088  0.3493 -0.2404 -0.7002
  321SOL  OW     961   2.099   2.274   2.388 -0.0956 -0.4336 -0.1934
  321SOL  HW1    962   2.076   2.340   2.460  0.7600 -0.2545  1.5089
  321SOL  HW2    963   2.200   2.272   2.375  0.6473  1.4950  0.8276
  322SOL  OW     964   2.675   2.883   2.358 -0.0843  0.3575  0.1770
  322SOL  HW1    965   2.604   2.940   2.310 -1.4481 -1.6860 -0.8690
  322SOL  HW2    966   2.680   2.789   2.312 -0.6980 -1.0948 -2.0346
  323SOL  OW     967   2.809   0.547   1.303 -0.2051 -0.2743 -0.0161
  323SOL  HW1    968   2.904   0.543   1.335  2.9717  1.7717  0.3312
  323SOL  HW2    969   2.769   0.452   1.294  1.1371 -0.7673 -0.5608
  324SOL  OW     970   2.492   1.794   2.338  0.3231  0.4136 -0.9766
  324SOL  HW1    971   2.561   1.730   2.375 -1.5790  2.8375  4.0618
  324SOL  HW2    972   2.454   1.853   2.411 -0.2281  1.9073  0.8162
  325SOL  OW     973   1.764   2.939   2.376  0.2295 -0.1960 -0.1044
  325SOL  HW1    974   1.725   3.016   2.436 -0.2894 -0.8092  0.2100
  325SOL  HW2    975   1.847   2.899   2.420 -2.5914 -0.4079 -0.8665
  326SOL  OW     976   0.049   2.248   0.264  0.1112 -0.3834  0.1315
  326SOL  HW1    977   0.146   2.222   0.279 -0.1774  1.1961  0.3640
  326SOL  HW2    978   0.036   2.347   0.279 -0.6201  0.2870 -0.6000
  327SOL  OW     979   2.371   3.083   3.010  0.1017  0.1575  0.4646
  327SOL  HW1    980   2.348   3.035   2.920  0.6226  0.6344 -0.4733
  327SOL  HW2    981   2.366   0.090   2.996  2.3150  1.0141  0.3083
  328SOL  OW     982   0.752   0.929   1.014 -0.1663  0.1015 -0.3432
  328SOL  HW1    983   0.677   0.996   1.019  1.0802  3.1002  0.5513
  328SOL  HW2    984   0.733   0.867   0.931  1.9696  0.4090  1.7702
  329SOL  OW     985   2.127   0.944   1.798  0.2193  0.3051  0.7299
  329SOL  HW1    986   2.127   0.848   1.833  0.4010 -1.3317 -1.1029
  329SOL  HW2    987   2.200   0.947   1.726  0.0579 -2.8042 -0.6026
  330SOL  OW     988   1.992   2.602   0.328 -0.3376 -0.3180 -0.5000
  330SOL  HW1    989   2.035   2.609   0.241 -0.5081 -1.6106  0.9565
  330SOL  HW2    990   1.989   2.502   0.355 -0.3259 -0.7450 -3.0573
  331SOL  OW     991   0.370   1.759   1.931  0.6572 -0.4602  0.7162
  331SOL  HW1    992   0.327   1.830   1.871 -3.6765  2.2562 -0.0138
  331SOL  HW2    993   0.395   1.672   1.879  0.7346  2.9476 -1.3776
  332SOL  OW     994   1.724   1.888   1.613  0.1268 -0.9325 -0.1905
  332SOL  HW1    995   1.756   1.892   1.514 -1.7032 -2.6725 -1.5028
  332SOL  HW2    996   1.794   1.918   1.684 -2.6137  0.9774 -0.2202
  333SOL  OW     997   2.741   2.488   1.104 -0.4086 -0.4118  0.1376
  333SOL  HW1    998   2.660   2.541   1.076  1.0401  1.7605  0.5249
  333SOL  HW2    999   2.827   2.547   1.106 -1.1318  2.6572  2.6231
  334SOL  OW    1000   2.597   1.153   0.729 -0.1738  0.7496  0.3768
  334SOL  HW1   1001   2.687   1.110   0.749  0.8452  0.9623  0.9738
  334SOL  HW2   1002   2.524   1.105   0.780  0.5153 -2.1405 -1.6768
  335SOL  OW    1003   0.214   0.114   2.612  0.3925 -0.0357  0.3708
  335SOL  HW1   1004   0.223   0.167   2.693  3.1870  1.0904 -0.1590
  335SOL  HW2   1005   0.280   0.147   2.544  1.3037  0.8452 -0.7092
  336SOL  OW    1006   0.623   2.799   1.099  0.0523 -0.1333 -0.1137
  336SOL  HW1   1007   0.594   2.814   1.198  0.6631  0.6490  3.3084
  336SOL  HW2   1008   0.566   2.728   1.056 -1.6703  1.2599 -2.2687
  337SOL  OW    1009   0.792   1.670   2.257 -0.7985  0.1853  0.2366
  337SOL  HW1   1010   0.728   1.701   2.327 -1.1455  1.9982  1.5322
  337SOL  HW2   1011   0.749   1.608   2.185 -2.4657 -2.2738 -1.9337
  338SOL  OW    1012   0.935   3.042   2.078  0.4324 -0.4784 -0.0517
  338SOL  HW1   1013   0.998   2.993   2.010  2.4850 -1.7661  0.1016
  338SOL  HW2   1014   0.891   2.976   2.145  0.2660 -1.6826  0.0476
  339SOL  OW    1015   3.039   1.239   2.844  0.0575  0.3257  0.7728
  339SOL  HW1   1016   2.994   1.209   2.930 -1.1176  1.9940  0.5531
  339SOL  HW2   1017   2.991   1.325   2.807 -0.2172  1.2006  0.5379
  340SOL  OW    1018   2.377   0.676   1.512  0.0766  0.3766  0.2606
  340SOL  HW1   1019   2.322   0.638   1.437 -2.1114  0.7105  2.7693
  340SOL  HW2   1020   2.478   0.690   1.488  0.6965 -1.1920 -0.0325
  341SOL  OW    1021   1.572   0.986   0.245 -0.4085 -0.0533  0.2700
  341SOL  HW1   1022   1.540   0.950   0.154 -0.1383  1.4995  2.4873
  341SOL  HW2   1023   1.529   0.932   0.323 -0.6856 -1.5813 -1.9018
  342SOL  OW    1024   2.686   2.623   2.892 -0.1570 -0.0115  0.4144
  342SOL  HW1   1025   2.623   2.594   2.816 -1.5047 -0.7607 -1.3702
  342SOL  HW2   1026   2.732   2.713   2.874 -1.3309 -1.2388  0.2607
  343SOL  OW    1027   2.715   2.299   1.307 -0.6202  0.1083 -0.1793
  343SOL  HW1   1028   2.741   2.354   1.225 -0.4481 -1.5553  2.6563
  343SOL  HW2   1029   2.617   2.268   1.299 -1.7161 -0.2555  0.7136
  344SOL  OW    1030   2.421   2.289   1.256  0.2221  0.1303  0.8591
  344SOL  HW1   1031   2.417   2.348   1.177 -2.3169 -2.4621  0.6040
  344SOL  HW2   1032   2.353   2.308   1.327  0.1088  0.7310 -0.1670
  345SOL  OW    1033   2.594   2.309   0.352 -0.4060  0.1678 -0.3179
  345SOL  HW1   1034   2.637   2.274   0.268  2.5207 -3.1180  0.7359
  345SOL  HW2   1035   2.645   2.273   0.438  1.0619 -0.0547 -0.2183
  346SOL  OW    1036   1.184   2.514   2.053  0.1436  0.1571  0.3713
  346SOL  HW1   1037   1.188   2.492   1.952  0.5738 -0.4944 -2.5907
  346SOL  HW2   1038   1.233   2.605   2.067  1.2138  2.0962  0.0671
  347SOL  OW    1039   1.968   1.679   2.107 -0.0305 -0.3512 -0.2706
  347SOL  HW1   1040   2.059   1.660   2.152  0.9172 -0.5727  0.8812
  347SOL  HW2   1041   1.940   1.603   2.050  0.7693  1.7961  2.3695
  348SOL  OW    1042   0.455   2.223   1.116 -0.0896 -0.3436  0.1439
  348SOL  HW1   1043   0.531   2.285   1.095 -1.5696 -0.5096 -0.5052
  348SOL  HW2   1044   0.388   2.262   1.186 -0.7144 -0.7632 -2.3110
  349SOL  OW    1045   1.338   1.301   1.747  0.7470  0.0582  0.4544
  349SOL  HW1   1046   1.388   1.260   1.666 -0.0665  0.3483  0.0878
  349SOL  HW2   1047   1.243   1.263   1.739 -1.5359  3.4120  2.3350
  350SOL  OW    1048   2.268   2.230   1.472 -0.2151 -0.1674  0.2055
  350SOL  HW1   1049   2.212   2.256   1.558 -1.3743 -0.6137 -1.7655
  350SOL  HW2   1050   2.361   2.197   1.492 -0.9668 -1.1312 -2.6055
  351SOL  OW    1051   3.080   0.451   1.413  0.6520 -0.0674 -0.0820
  351SOL  HW1   1052   0.041   0.531   1.395 -1.1961 -0.4568  0.9565
  351SOL  HW2   1053   3.039   0.456   1.506 -3.3419 -0.1638 -0.4263
  352SOL  OW    1054   0.965   0.495   2.579 -0.9340 -0.1368 -0.8646
  352SOL  HW1   1055   0.997   0.439   2.495  0.2719 -1.4965  0.0348
  352SOL  HW2   1056   0.985   0.593   2.563 -0.1470 -0.8656  1.5702
  353SOL  OW    1057   0.534   1.408   2.478  0.3021 -0.2307  0.1408
  353SOL  HW1   1058   0.472   1.347   2.520  0.6965 -1.7184  2.5959
  353SOL  HW2   1059   0.622   1.363   2.461  1.1261  1.0004 -2.7744
  354SOL  OW    1060   2.191   2.674   2.161  0.3135  0.7106  0.0360
  354SOL  HW1   1061   2.096   2.702   2.132  1.1917  1.6616  0.1470
  354SOL  HW2   1062   2.242   2.759   2.189 -2.0274  1.0891  2.1264
  355SOL  OW    1063   2.011   0.315   0.226 -0.1073 -0.1366  0.4467
  355SOL  HW1   1064   2.012   0.247   0.302  0.4095  1.3926  1.1751
  355SOL  HW2   1065   1.917   0.361   0.220  0.6344 -0.8322 -0.7844
  356SOL  OW    1066   0.667   2.316   1.343 -0.2753  0.3479 -0.1135
  356SOL  HW1   1067   0.752   2.260   1.331 -1.1201 -0.7782 -0.0626
  356SOL  HW2   1068   0.652   2.366   1.255 -0.4613 -0.2145  0.6332
  357SOL  OW    1069   2.776   0.063   2.123  0.0710 -0.1177 -0.0431
  357SOL  HW1   1070   2.820   0.094   2.209  1.6703  1.1519  0.2417
  357SOL  HW2   1071   2.841   0.014   2.060 -0.7655 -0.3957 -1.9231
  358SOL  OW    1072   2.628   1.953   1.901 -0.0593 -0.1049 -0.4834
  358SOL  HW1   1073   2.552   1.962   1.833  0.1129  1.1840 -0.8537
  358SOL  HW2   1074   2.698   2.024   1.883 -1.0907  0.4717 -1.3588
  359SOL  OW    1075   2.378   2.314   2.346 -0.0215  0.2154  0.0139
  359SOL  HW1   1076   2.408   2.290   2.440 -0.1733 -3.4852  1.1831
  359SOL  HW2   1077   2.420   2.259   2.275  1.8401  1.8678 -0.6011
  360SOL  OW    1078   2.191   2.500   0.819  0.2432  0.1127 -0.2007
  360SOL  HW1   1079   2.200   2.600   0.847  0.1240  2.6612  3.0250
  360SOL  HW2   1080   2.090   2.480   0.814 -0.3571  0.2873 -0.1074
  361SOL  OW    1081   1.918   2.641   0.590 -0.0126  0.1820  0.0818
  361SOL  HW1   1082   1.935   2.635   0.489  1.5618 -1.1441 -0.3568
  361SOL  HW2   1083   1.906   2.552   0.642  3.5229 -0.8417  0.9209
  362SOL  OW    1084   1.832   0.129   1.127 -0.0439  0.1181  0.2440
  362SOL  HW1   1085   1.847   0.041   1.078  3.2657 -0.6019  2.3981
  362SOL  HW2   1086   1.839   0.207   1.060  0.1232 -1.8956  1.0874
  363SOL  OW    1087   2.283   1.827   2.888 -0.2013 -0.2202  0.1142
  363SOL  HW1   1088   2.194   1.802   2.935  0.1988 -2.2711 -0.9934
  363SOL  HW2   1089   2.349   1.857   2.959 -1.4114  1.8196 -1.5252
  364SOL  OW    1090   0.787   1.366   1.380 -0.1964  0.1591 -0.4360
  364SOL  HW1   1091   0.778   1.467   1.392 -1.1464 -0.5493  0.6754
  364SOL  HW2   1092   0.736   1.315   1.455 -1.3288  2.2830 -0.8973
  365SOL  OW    1093   1.058   0.948   2.725  0.7943  0.4550  0.0887
  365SOL  HW1   1094   0.962   0.970   2.754  0.8581 -1.5154  0.0406
  365SOL  HW2   1095   1.114   0.929   2.808 -0.9694  1.1993 -1.0804
  366SOL  OW    1096   2.234   1.073   2.977  0.4637 -0.3212  0.0154
  366SOL  HW1   1097   2.249   1.139   2.899 -0.8435  0.5828 -1.6445
  366SOL  HW2   1098   2.201   1.117   3.060 -0.5111 -1.5609 -0.1958
  367SOL  OW    1099   0.121   2.359   1.817 -0.1650  0.3308 -0.3733
  367SOL  HW1   1100   0.168   2.349   1.908  3.0388 -1.3338  0.9670
  367SOL  HW2   1101   0.130   2.455   1.776 -0.3418  0.7132 -3.6459
  368SOL  OW    1102   2.105   0.915   1.460  0.3262  0.1907  0.3767
  368SOL  HW1   1103   2.201   0.935   1.485 -0.5576 -0.6911  1.3653
  368SOL  HW2   1104   2.037   0.970   1.511 -0.6180  1.3862 -1.6651
  369SOL  OW    1105   3.033   0.269   1.801  0.3318  0.4000 -0.7039
  369SOL  HW1   1106   3.052   0.246   1.900  1.4091  0.5590  1.5322
  369SOL  HW2   1107   2.986   0.197   1.757  0.0899  0.4875 -0.0366
  370SOL  OW    1108   0.026   0.282   0.719  0.3450  0.4784 -0.8757
  370SOL  HW1   1109   0.001   0.201   0.666 -0.4766  0.0475 -2.1572
  370SOL  HW2   1110   0.106   0.264   0.775  1.3338  0.5365  2.0192
  371SOL  OW    1111   0.580   2.521   1.475 -0.3384 -0.3018  0.4482
  371SOL  HW1   1112   0.493   2.484   1.521  1.0185 -2.0077 -1.0596
  371SOL  HW2   1113   0.635   2.450   1.431  0.8110  0.1920  0.9826
  372SOL  OW    1114   2.401   0.420   2.474 -0.1085  0.2971  0.0329
  372SOL  HW1   1115   2.422   0.399   2.568  0.7206 -0.5598  1.4913
  372SOL  HW2   1116   2.368   0.333   2.432  2.3157 -0.0904  0.9307
  373SOL  OW    1117   0.032   2.071   0.759  0.5130  0.5180 -0.0890
  373SOL  HW1   1118   0.030   2.025   0.853  0.3257  1.1237  1.0898
  373SOL  HW2   1119   0.029   1.993   0.691  1.3732 -0.8526  1.4025
  374SOL  OW    1120   3.021   0.887   2.292 -0.0637 -0.8362  0.5937
  374SOL  HW1   1121   2.922   0.910   2.284  2.0815  0.0678  0.2634
  374SOL  HW2   1122   3.037   0.820   2.370 -0.1571  2.4764  0.3668
  375SOL  OW    1123   1.125   0.362   2.369  0.1437 -0.4914 -0.0481
  375SOL  HW1   1124   1.047   0.299   2.356 -0.9697  1.1519  0.0548
  375SOL  HW2   1125   1.113   0.441   2.305 -0.1251 -1.4358 -0.7422
  376SOL  OW    1126   2.533   2.181   1.542 -0.0669 -0.7671  0.0335
  376SOL  HW1   1127   2.557   2.251   1.610 -0.1801 -0.3520 -0.4891
  376SOL  HW2   1128   2.602   2.179   1.471  0.0398  1.7341 -0.0506
  377SOL  OW    1129   1.600   2.981   2.749 -0.3855 -0.0615 -0.0624
  377SOL  HW1   1130   1.645   2.896   2.786 -1.0525 -0.1716  1.1360
  377SOL  HW2   1131   1.578   3.050   2.823 -1.2724 -0.8540  1.1905
  378SOL  OW    1132   2.472   1.941   2.130 -0.2189 -0.1061  0.6217
  378SOL  HW1   1133   2.522   1.926   2.040 -1.7868  1.6109  2.0751
  378SOL  HW2   1134   2.496   1.866   2.194  2.2136 -1.2655 -2.7035
  379SOL  OW    1135   1.871   0.172   2.715 -0.0438  0.6294  1.0022
  379SOL  HW1   1136   1.940   0.251   2.706 -1.7330  1.3761  0.3683
  379SOL  HW2   1137   1.788   0.184   2.652 -1.4499  0.7002  0.6786
  380SOL  OW    1138   0.452   1.881   1.302  0.0731  0.6422  0.3250
  380SOL  HW1   1139   0.454   1.777   1.319  1.2398 -1.6706 -0.3906
  380SOL  HW2   1140   0.485   1.895   1.204 -1.9341 -0.8939 -0.5437
  381SOL  OW    1141   0.210   1.306   2.821  0.7431 -0.1834 -1.1593
  381SOL  HW1   1142   0.236   1.383   2.884  0.9452  0.7831  0.0823
  381SOL  HW2   1143   0.117   1.275   2.829 -1.0959 -1.3279  1.0775
  382SOL  OW    1144   1.968   2.238   0.625 -0.3218 -0.0434  0.1216
  382SOL  HW1   1145   1.986   2.264   0.526 -1.0049 -1.2227  1.3953
  382SOL  HW2   1146   2.049   2.200   0.673 -0.8545 -1.0384 -2.1368
  383SOL  OW    1147   0.673   1.706   2.995  0.5900 -1.2542 -0.3323
  383SOL  HW1   1148   0.649   1.606   3.003 -0.3041  2.4107 -0.0118
  383SOL  HW2   1149   0.631   1.756   3.074 -0.0102 -0.6545  4.1683
  384SOL  OW    1150   0.579   2.899   2.301 -0.1564 -0.1196 -0.3749
  384SOL  HW1   1151   0.510   2.945   2.361 -0.2597 -2.1161  1.7064
  384SOL  HW2   1152   0.606   2.957   2.222  0.1107  1.1367 -0.7658
  385SOL  OW    1153   2.394   2.035   1.149 -0.4187  0.7755  0.1154
  385SOL  HW1   1154   2.302   2.025   1.110  0.4104  0.0581 -0.2669
  385SOL  HW2   1155   2.412   2.133   1.183 -3.7733 -0.1551 -0.1276
  386SOL  OW    1156   2.332   0.262   1.835 -0.3373 -0.1468  0.3197
  386SOL  HW1   1157   2.404   0.193   1.861  0.3109 -0.6791 -0.0080
  386SOL  HW2   1158   2.248   0.256   1.891  2.5913  0.3527  1.3019
  387SOL  OW    1159   0.651   1.274   1.594  0.1981 -0.6929  0.3900
  387SOL  HW1   1160   0.662   1.358   1.649  2.6432  0.6539  6.4132
  387SOL  HW2   1161   0.552   1.243   1.602 -0.0848 -2.2396  1.2619
  388SOL  OW    1162   1.066   1.706   2.674  0.6026 -0.3144  0.6399
  388SOL  HW1   1163   1.146   1.676   2.617 -1.1420  1.0301 -1.4333
  388SOL  HW2   1164   1.045   1.639   2.747  1.8979  0.6360  1.7452
  389SOL  OW    1165   0.660   0.699   1.931  0.1763  0.2328 -0.0809
  389SOL  HW1   1166   0.708   0.613   1.943 -2.1079  3.0648  0.7584
  389SOL  HW2   1167   0.718   0.782   1.950  0.1859 -4.2316 -2.0975
  390SOL  OW    1168   2.972   3.071   1.065 -0.5843  0.3487 -0.1039
  390SOL  HW1   1169   2.985   0.073   1.091  1.0558 -0.1670 -2.1787
  390SOL  HW2   1170   3.015   3.056   0.977 -0.5617 -1.3495 -1.4853
  391SOL  OW    1171   1.389   1.240   0.783 -0.3892  0.0745  0.1101
  391SOL  HW1   1172   1.432   1.265   0.870 -1.3380  2.1119  1.9509
  391SOL  HW2   1173   1.294   1.267   0.781  0.4040 -1.8875 -0.3654
  392SOL  OW    1174   0.339   2.701   0.627 -0.3942  0.4546 -0.6209
  392SOL  HW1   1175   0.355   2.604   0.650 -1.8287  1.9667  0.9980
  392SOL  HW2   1176   0.424   2.754   0.641 -0.1547 -1.9470  1.1225
  393SOL  OW    1177   1.259   2.054   0.096 -0.3973 -0.4042  0.5887
  393SOL  HW1   1178   1.320   1.982   0.139 -2.9334 -1.6090  2.1554
  393SOL  HW2   1179   1.268   2.047   3.093  0.7351 -0.0302  0.9656
  394SOL  OW    1180   0.645   2.560   0.000  0.1613  0.4901 -0.2627
  394SOL  HW1   1181   0.652   2.475   3.045  2.0248  3.2001 -1.5637
  394SOL  HW2   1182   0.553   2.575   0.049  0.2331 -1.9006 -1.3371
  395SOL  OW    1183   0.417   0.011   0.343 -0.5517  0.1436  0.3450
  395SOL  HW1   1184   0.482   0.016   0.421  2.4681 -0.5737 -0.1660
  395SOL  HW2   1185   0.323   0.032   0.366  0.3212 -1.4599 -0.0944
  396SOL  OW    1186   2.536   0.583   0.686  0.1989  0.6726 -0.3859
  396SOL  HW1   1187   2.464   0.510   0.695  0.6602 -1.5372 -0.5176
  396SOL  HW2   1188   2.491   0.671   0.674 -1.3747  0.5948  0.4994
  397SOL  OW    1189   0.527   1.106   1.845 -0.9129  0.1990  0.5143
  397SOL  HW1   1190   0.579   1.153   1.920  0.5872 -0.2172  1.7290
  397SOL  HW2   1191   0.434   1.073   1.874  0.9350  1.9538 -0.9097
  398SOL  OW    1192   1.231   0.637   2.976  0.1090  0.8180 -0.2343
  398SOL  HW1   1193   1.212   0.587   2.887  1.8929 -0.5316 -0.3975
  398SOL  HW2   1194   1.235   0.736   2.960  0.8584 -2.8249 -0.4577
  399SOL  OW    1195   1.657   0.559   1.971  0.0862  0.0862 -0.3743
  399SOL  HW1   1196   1.605   0.604   1.891 -1.7440  4.7700 -3.1070
  399SOL  HW2   1197   1.594   0.500   2.019  0.7994 -1.5749  1.5385
  400SOL  OW    1198   0.612   2.370   2.900  0.5643  0.0930 -0.3186
  400SOL  HW1   1199   0.636   2.273   2.918  1.2358  0.2697 -2.4798
  400SOL  HW2   1200   0.647   2.397   2.804  1.1012 -1.6536  0.6685
  401SOL  OW    1201   0.066   1.620   1.899 -0.0419 -0.1097  0.0882
  401SOL  HW1   1202   0.036   1.525   1.925  1.4033  0.8082  3.5465
  401SOL  HW2   1203   0.125   1.615   1.821  2.2718 -1.4950  3.3454
  402SOL  OW    1204   0.374   0.229   0.169 -0.3578 -0.7792 -0.0252
  402SOL  HW1   1205   0.382   0.126   0.179 -0.5066 -1.4847 -0.0277
  402SOL  HW2   1206   0.345   0.273   0.259  2.4953  2.2995 -0.3143
  403SOL  OW    1207   0.828   1.080   1.682 -0.8077  0.1441 -0.3193
  403SOL  HW1   1208   0.740   1.130   1.665 -0.5888 -2.4857 -0.1677
  403SOL  HW2   1209   0.829   1.000   1.615 -3.0703 -0.6839  1.7971
  404SOL  OW    1210   2.081   2.418   2.616 -0.0094  0.9691 -0.1345
  404SOL  HW1   1211   2.176   2.442   2.651  1.2299  1.5890  0.7160
  404SOL  HW2   1212   2.030   2.382   2.693 -2.1015 -0.9986 -2.0484
  405SOL  OW    1213   0.094   0.844   1.864  0.2074 -0.1018  0.0707
  405SOL  HW1   1214   0.050   0.799   1.951 -1.1652 -0.0940 -0.1419
  405SOL  HW2   1215   0.064   0.794   1.779 -1.5119  0.0829 -1.0307
  406SOL  OW    1216   1.896   1.209   2.898 -0.1570  0.2835 -0.1799
  406SOL  HW1   1217   1.912   1.245   2.991 -0.4786  0.5462 -0.5879
  406SOL  HW2   1218   1.912   1.107   2.900 -1.8310  0.5335 -2.6205
  407SOL  OW    1219   2.219   0.646   2.465  0.2938  0.0517  0.2070
  407SOL  HW1   1220   2.279   0.563   2.472  0.3990 -0.2194 -2.2979
  407SOL  HW2   1221   2.141   0.633   2.403  1.6298 -0.2834 -0.3324
  408SOL  OW    1222   0.032   2.699   1.436  0.3662  0.1309 -0.4401
  408SOL  HW1   1223   0.055   2.606   1.400  1.0404 -1.1165 -1.3692
  408SOL  HW2   1224   0.001   2.761   1.362  1.2322 -0.4296 -0.6266
  409SOL  OW    1225   0.177   1.913   1.222 -0.1578  0.0623 -0.3231
  409SOL  HW1   1226   0.123   1.986   1.265 -0.7660 -0.3711 -3.0573
  409SOL  HW2   1227   0.271   1.910   1.266 -1.0293 -0.0095  4.3531
  410SOL  OW    1228   3.052   1.937   0.147  0.9739 -0.1593  0.8447
  410SOL  HW1   1229   3.012   1.989   0.219 -1.2569  0.7484 -3.3776
  410SOL  HW2   1230   2.983   1.894   0.082  0.1939 -1.0828 -0.4763
  411SOL  OW    1231   2.209   2.938   1.802  0.7443 -0.0090 -0.4831
  411SOL  HW1   1232   2.132   2.951   1.869  1.0500  2.4199  0.7050
  411SOL  HW2   1233   2.184   2.913   1.702  0.7384  0.7302 -0.1742
  412SOL  OW    1234   2.643   0.706   1.448  0.4564 -0.1152 -0.2169
  412SOL  HW1   1235   2.704   0.661   1.384 -1.4018  0.4586 -3.7033
  412SOL  HW2   1236   2.662   0.803   1.477 -0.9080  2.5379 -1.6225
  413SOL  OW    1237   2.750   1.143   2.226  0.4926  0.2569  0.2197
  413SOL  HW1   1238   2.740   1.046   2.205  1.4993 -0.3634 -1.0849
  413SOL  HW2   1239   2.664   1.196   2.224 -1.1386  2.2648 -0.1390
  414SOL  OW    1240   2.926   1.472   0.068 -0.4456  0.1587 -0.0860
  414SOL  HW1   1241   2.825   1.488   0.073  0.1794 -0.6648  1.3016
  414SOL  HW2   1242   2.954   1.377   0.050 -0.5139  1.4383  1.8032
  415SOL  OW    1243   0.832   2.264   2.667 -0.1450  0.0929  0.3653
  415SOL  HW1   1244   0.878   2.194   2.610  0.9197  1.9829 -2.5971
  415SOL  HW2   1245   0.752   2.307   2.625 -0.2451  0.8513 -1.7726
  416SOL  OW    1246   1.894   2.462   2.870  0.5310 -0.1632  0.3049
  416SOL  HW1   1247   1.847   2.385   2.820  2.0304 -1.5943 -2.5680
  416SOL  HW2   1248   1.846   2.487   2.952  2.6392  1.3877 -4.5184
  417SOL  OW    1249   2.960   1.473   0.776 -0.0967 -0.0020  0.6973
  417SOL  HW1   1250   2.914   1.454   0.689  0.0931 -1.2541 -1.1280
  417SOL  HW2   1251   2.889   1.459   0.846  0.2996  2.0582  0.0488
  418SOL  OW    1252   1.958   2.838   1.262 -0.3113  0.1959  0.0843
  418SOL  HW1   1253   2.000   2.916   1.208 -1.8399 -0.9549  0.1804
  418SOL  HW2   1254   2.026   2.760   1.283  1.6682 -0.0323  2.7003
  419SOL  OW    1255   0.670   3.056   0.760  0.2263 -0.4010  0.2675
  419SOL  HW1   1256   0.770   3.045   0.742  2.6184  2.1049  0.3460
  419SOL  HW2   1257   0.632   0.010   0.677  0.5787  1.1532 -0.8166
  420SOL  OW    1258   0.667   1.772   1.716 -0.5271 -0.4699  0.0569
  420SOL  HW1   1259   0.587   1.825   1.678  1.2394 -0.5249 -2.5834
  420SOL  HW2   1260   0.671   1.794   1.817  1.2249 -0.9035 -0.7793
  421SOL  OW    1261   2.559   2.566   0.443 -0.4194  0.3063 -0.0678
  421SOL  HW1   1262   2.462   2.599   0.453  0.2541  0.0906  2.0780
  421SOL  HW2   1263   2.565   2.473   0.408 -1.1664 -1.8183  0.8210
  422SOL  OW    1264   3.068   1.342   1.917  0.0543  0.0594  0.0506
  422SOL  HW1   1265   2.972   1.323   1.928  2.9879  1.1522 -0.2801
  422SOL  HW2   1266   0.022   1.307   2.002 -0.2638 -1.6706  0.0389
  423SOL  OW    1267   0.696   1.526   2.046 -0.4083  0.4869 -0.4350
  423SOL  HW1   1268   0.774   1.498   1.985 -1.2093 -0.5367 -0.0323
  423SOL  HW2   1269   0.619   1.458   2.048  0.3281  1.9395 -2.8575
  424SOL  OW    1270   1.275   2.345   0.430  0.4732 -0.0556  0.3406
  424SOL  HW1   1271   1.237   2.276   0.496  1.3383  0.1968  1.5638
  424SOL  HW2   1272   1.243   2.435   0.458 -1.7187 -0.4457  1.1222
  425SOL  OW    1273   2.432   0.061   2.439 -0.1755 -0.8037 -0.0496
  425SOL  HW1   1274   2.348   0.069   2.492 -0.1361 -0.1082  2.3887
  425SOL  HW2   1275   2.424   0.111   2.350  0.5769  0.5115  0.7763
  426SOL  OW    1276   0.660   0.556   2.306 -0.6092 -0.3053 -0.1551
  426SOL  HW1   1277   0.699   0.471   2.279  1.4955  0.4903 -0.3128
  426SOL  HW2   1278   0.580   0.575   2.246  1.0907  2.5725 -2.1713
  427SOL  OW    1279   0.974   0.061   0.386 -0.8546 -0.4584 -0.2014
  427SOL  HW1   1280   0.911   0.101   0.317 -0.5233 -0.6751  0.3928
  427SOL  HW2   1281   1.044   0.002   0.344 -0.3986  0.8175  0.0149
  428SOL  OW    1282   3.012   1.312   1.246 -0.1050  0.2960  0.0944
  428SOL  HW1   1283   2.979   1.258   1.165 -1.4028 -0.5895  1.8065
  428SOL  HW2   1284   2.933   1.370   1.281 -3.1952 -0.6422 -1.4136
  429SOL  OW    1285   2.161   2.794   0.609  0.4702 -0.0441 -0.1360
  429SOL  HW1   1286   2.062   2.756   0.605  2.3259 -1.2783 -4.2485
  429SOL  HW2   1287   2.178   2.863   0.532 -1.0184 -0.0237  2.0092
  430SOL  OW    1288   0.909   1.553   2.885  0.3787 -0.3246  0.1565
  430SOL  HW1   1289   0.846   1.621   2.922 -0.0271 -0.3177 -3.6356
  430SOL  HW2   1290   0.864   1.462   2.870  0.9843 -1.3989  2.5574
  431SOL  OW    1291   2.458   1.838   0.909 -0.3864  0.5615  0.0347
  431SOL  HW1   1292   2.368   1.798   0.885 -1.3038  0.2364 -3.1137
  431SOL  HW2   1293   2.447   1.934   0.941 -0.7676  0.3247 -2.0102
  432SOL  OW    1294   1.162   1.938   2.856 -0.2079 -0.3483 -0.2708
  432SOL  HW1   1295   1.197   1.859   2.913  1.1798  0.9672  0.3405
  432SOL  HW2   1296   1.107   1.901   2.775  0.6062  1.3480 -0.8193
  433SOL  OW    1297   1.324   2.933   2.704  0.3195  0.3435 -0.0412
  433SOL  HW1   1298   1.418   2.961   2.729 -3.5308 -2.0717 -0.2560
  433SOL  HW2   1299   1.319   2.851   2.644  1.6186 -1.1603  1.7393
  434SOL  OW    1300   1.315   2.703   2.557  0.2079  0.1234  0.8189
  434SOL  HW1   1301   1.219   2.672   2.567 -2.0334  0.2756  0.0992
  434SOL  HW2   1302   1.376   2.627   2.577  1.2233  2.0493  0.0293
  435SOL  OW    1303   0.491   3.004   2.689  0.1387  0.0650  0.3043
  435SOL  HW1   1304   0.580   3.042   2.654 -0.8382 -0.4214 -2.7393
  435SOL  HW2   1305   0.452   3.049   2.768 -0.1342 -1.3292  0.9644
  436SOL  OW    1306   0.778   1.297   2.367  0.0174  0.1652 -0.4147
  436SOL  HW1   1307   0.832   1.302   2.456 -1.1733 -2.0294  0.0394
  436SOL  HW2   1308   0.842   1.310   2.285 -1.1078 -1.3925  0.7988
  437SOL  OW    1309   0.437   2.269   2.420  0.0760 -0.0282 -0.7250
  437SOL  HW1   1310   0.514   2.325   2.383  1.2262 -1.4863  0.8547
  437SOL  HW2   1311   0.461   2.220   2.508  0.7630 -2.1356  0.1001
  438SOL  OW    1312   0.295   0.814   0.704 -0.9358  0.1391 -0.0167
  438SOL  HW1   1313   0.321   0.871   0.786 -0.1444 -2.6349 -0.4181
  438SOL  HW2   1314   0.252   0.865   0.627 -1.5370  3.5847  0.4600
  439SOL  OW    1315   2.311   1.505   1.879 -0.1181 -0.0419  0.9318
  439SOL  HW1   1316   2.331   1.498   1.978  0.1027 -1.0785 -0.5239
  439SOL  HW2   1317   2.392   1.546   1.831  0.6394 -1.2001 -1.0507
  440SOL  OW    1318   0.749   0.027   1.852 -0.8330  0.2515  0.1294
  440SOL  HW1   1319   0.814   3.053   1.890  2.5358 -0.7191  1.2416
  440SOL  HW2   1320   0.814   0.082   1.799  2.0577 -0.3045  1.9384
  441SOL  OW    1321   0.476   1.607   1.296  0.1068 -0.6707  0.5608
  441SOL  HW1   1322   0.436   1.512   1.307  0.7923 -0.7613 -3.4624
  441SOL  HW2   1323   0.571   1.606   1.337  1.1628  0.6786 -0.3327
  442SOL  OW    1324   1.890   1.204   0.486 -0.1232  0.1643 -0.0950
  442SOL  HW1   1325   1.858   1.276   0.415 -1.5606 -0.4226 -0.6938
  442SOL  HW2   1326   1.862   1.110   0.455  0.8105  2.0899 -1.9156
  443SOL  OW    1327   0.021   2.094   2.620 -0.2698  0.2006 -0.5781
  443SOL  HW1   1328   3.035   2.093   2.680  1.6550  2.0035 -0.4375
  443SOL  HW2   1329   0.110   2.109   2.675  1.5822 -1.0117 -1.9292
  444SOL  OW    1330   2.132   1.524   0.004  0.3265 -0.1178 -0.2491
  444SOL  HW1   1331   2.061   1.449   3.092  1.5322 -0.9677  0.4635
  444SOL  HW2   1332   2.090   1.609   3.058 -1.3986 -4.3905 -1.8150
  445SOL  OW    1333   0.252   2.327   2.032  0.3055  0.0753  0.2814
  445SOL  HW1   1334   0.295   2.236   2.027 -2.5103 -1.8008 -0.2457
  445SOL  HW2   1335   0.209   2.337   2.124  2.6204  1.8843  0.2742
  446SOL  OW    1336   1.131   1.034   2.026 -0.1910 -0.3982 -0.5571
  446SOL  HW1   1337   1.114   1.130   2.014 -0.9176 -0.1832  1.1313
  446SOL  HW2   1338   1.147   0.981   1.938  1.2537 -2.2150  0.7240
  447SOL  OW    1339   0.112   0.670   0.844  0.2814  0.1982  0.3302
  447SOL  HW1   1340   0.046   0.625   0.780 -0.5058 -0.6977 -2.1108
  447SOL  HW2   1341   0.192   0.711   0.791 -0.0201 -2.0945 -0.4154
  448SOL  OW    1342   1.061   1.720   2.206  0.4600 -0.0423  0.0400
  448SOL  HW1   1343   1.053   1.808   2.152  2.4270  2.5301  0.3544
  448SOL  HW2   1344   0.968   1.703   2.246 -3.1952 -0.9230  2.5583
  449SOL  OW    1345   2.834   1.673   2.593 -0.1637 -0.4531  0.0616
  449SOL  HW1   1346   2.749   1.648   2.550 -0.3038  1.0816  1.3053
  449SOL  HW2   1347   2.905   1.701   2.525 -1.5853  0.5920 -2.1161
  450SOL  OW    1348   1.482   1.742   2.297 -0.4091 -0.0133  0.0209
  450SOL  HW1   1349   1.394   1.726   2.354  0.6633  0.1393 -0.6975
  450SOL  HW2   1350   1.565   1.725   2.357 -0.7781  0.0319  0.1712
  451SOL  OW    1351   1.701   1.428   1.523 -0.1461 -0.2123 -0.2280
  451SOL  HW1   1352   1.733   1.421   1.422  1.6079  0.7696 -2.9900
  451SOL  HW2   1353   1.703   1.523   1.553  1.2901  0.4105 -0.8059
  452SOL  OW    1354   1.058   0.536   2.164  0.7726 -0.7080 -0.4039
  452SOL  HW1   1355   1.008   0.616   2.203  1.1099  2.0706  2.7198
  452SOL  HW2   1356   1.033   0.519   2.065 -0.4508 -0.6369 -2.2714
  453SOL  OW    1357   2.984   2.599   1.111 -0.0735 -0.1618 -0.5028
  453SOL  HW1   1358   3.016   2.594   1.011  1.0125 -2.0590 -0.6875
  453SOL  HW2   1359   3.014   2.689   1.148 -0.8324 -0.0591 -1.1855
  454SOL  OW    1360   1.005   0.862   0.259 -0.0627  0.1087  0.0072
  454SOL  HW1   1361   1.048   0.788   0.200  3.8934  1.6625 -0.7211
  454SOL  HW2   1362   0.990   0.949   0.205 -0.8294 -0.2772  3.3383
  455SOL  OW    1363   1.798   0.544   1.320 -0.0212 -0.6158 -0.1155
  455SOL  HW1   1364   1.874   0.611   1.318  2.6483  2.0449 -0.8160
  455SOL  HW2   1365   1.795   0.493   1.231  1.4667  0.8702 -0.6925
  456SOL  OW    1366   1.755   2.526   0.038  0.1004 -0.4432 -0.1641
  456SOL  HW1   1367   1.719   2.621   0.037  1.0006  1.0384  3.3944
  456SOL  HW2   1368   1.767   2.495   0.138  1.8401  1.2156  1.2208
  457SOL  OW    1369   1.657   1.643   2.003  0.1239  0.2354 -0.0803
  457SOL  HW1   1370   1.607   1.728   2.033 -1.3391 -1.9103 -0.1431
  457SOL  HW2   1371   1.651   1.578   2.082  1.1362 -0.6516 -0.2923
  458SOL  OW    1372   2.858   0.497   2.630  0.2540  0.0906 -0.2635
  458SOL  HW1   1373   2.899   0.463   2.715  0.2482  0.3853 -0.0710
  458SOL  HW2   1374   2.850   0.431   2.558 -1.7973  1.0136  0.3613
  459SOL  OW    1375   1.936   2.041   0.358  0.2440  0.0795  0.5931
  459SOL  HW1   1376   1.933   2.138   0.323  0.3580 -1.2086 -0.6490
  459SOL  HW2   1377   1.846   1.998   0.371  1.2128 -2.2600 -1.4991
  460SOL  OW    1378   1.759   0.557   2.703  0.3220 -0.5328 -0.2754
  460SOL  HW1   1379   1.729   0.468   2.748 -0.2104 -0.9712 -0.5323
  460SOL  HW2   1380   1.849   0.589   2.744  1.4898 -1.0942 -0.4353
  461SOL  OW    1381   0.385   2.210   0.539  0.5543 -0.0436  0.3054
  461SOL  HW1   1382   0.342   2.140   0.484  1.9841 -0.1053  0.2544
  461SOL  HW2   1383   0.398   2.290   0.485 -0.7155 -0.8887 -0.9395
  462SOL  OW    1384   1.033   2.666   2.514  0.3070  0.0445 -0.1096
  462SOL  HW1   1385   0.993   2.613   2.591  0.2690  0.4476 -1.2107
  462SOL  HW2   1386   1.031   2.606   2.427  2.2130  0.5056  1.7656
  463SOL  OW    1387   1.504   1.886   2.072  0.2153  0.1846  0.9955
  463SOL  HW1   1388   1.519   1.987   2.065  1.7755 -1.3526 -2.8649
  463SOL  HW2   1389   1.493   1.852   2.168  1.6244 -1.0982  0.9379
  464SOL  OW    1390   0.443   2.460   0.710 -0.2552 -0.0928 -0.1386
  464SOL  HW1   1391   0.523   2.461   0.649 -1.2827 -1.1850 -0.5790
  464SOL  HW2   1392   0.422   2.366   0.733  1.3240  0.8251  0.5269
  465SOL  OW    1393   0.398   0.552   1.523 -0.2824  0.5423 -0.1319
  465SOL  HW1   1394   0.436   0.463   1.552 -0.3445 -0.4071 -1.3160
  465SOL  HW2   1395   0.475   0.605   1.477  0.9941 -0.0668  1.0763
  466SOL  OW    1396   1.224   2.509   3.047 -0.0482  0.9030  0.5650
  466SOL  HW1   1397   1.160   2.452   2.990  0.1341  0.3291 -0.8543
  466SOL  HW2   1398   1.317   2.480   3.032  2.1154 -2.4738  1.2090
  467SOL  OW    1399   0.193   1.782   0.206  0.1595 -0.8027 -0.0318
  467SOL  HW1   1400   0.283   1.824   0.190  0.1515 -0.3340 -0.7701
  467SOL  HW2   1401   0.120   1.853   0.197 -0.2393  0.2339  1.3856
  468SOL  OW    1402   2.330   1.948   2.532  0.0613  0.5903 -0.4998
  468SOL  HW1   1403   2.239   1.960   2.485  1.5377 -3.1896 -0.4196
  468SOL  HW2   1404   2.332   1.866   2.592 -0.8256 -0.3254 -0.7296
  469SOL  OW    1405   0.946   1.594   0.568 -0.7185  0.2683  0.1403
  469SOL  HW1   1406   0.984   1.499   0.571 -1.2688 -1.0976  2.0253
  469SOL  HW2   1407   0.847   1.591   0.594  1.1463  0.6015 -0.9484
  470SOL  OW    1408   2.186   0.368   1.113 -0.0311 -0.2455 -0.5280
  470SOL  HW1   1409   2.182   0.267   1.129 -0.3981 -2.2857 -0.1813
  470SOL  HW2   1410   2.141   0.398   1.031 -1.1315  2.4168 -1.3727
  471SOL  OW    1411   0.120   1.656   0.434 -0.9499  0.1730  0.0881
  471SOL  HW1   1412   0.154   1.698   0.348  0.2646 -2.9827 -1.4587
  471SOL  HW2   1413   0.058   1.584   0.410 -1.8152  0.1386 -2.8862
  472SOL  OW    1414   3.085   2.360   3.007 -0.1563 -0.6754  0.3687
  472SOL  HW1   1415   0.072   2.380   3.066  1.0199  0.7921  0.9301
  472SOL  HW2   1416   0.010   2.399   2.916  2.0016 -0.7183  1.7479
  473SOL  OW    1417   1.258   1.225   0.256 -0.2372 -0.1099 -0.4254
  473SOL  HW1   1418   1.314   1.278   0.327  0.6984 -0.4605  0.3754
  473SOL  HW2   1419   1.255   1.127   0.287 -0.4638  1.0518  0.5541
  474SOL  OW    1420   2.993   0.235   1.119  0.0333 -0.0289  0.2945
  474SOL  HW1   1421   2.939   0.234   1.207  2.0148 -0.3513 -0.1612
  474SOL  HW2   1422   3.073   0.294   1.130  2.0126 -0.9505  1.8438
  475SOL  OW    1423   0.026   0.715   2.079 -0.4580  0.4673  0.3681
  475SOL  HW1   1424   3.056   0.641   2.040  1.6716 -0.7545  1.0425
  475SOL  HW2   1425   3.083   0.758   2.165  3.6527  1.0256  1.1375
  476SOL  OW    1426   0.238   0.199   0.882  0.2285  0.1331  0.0798
  476SOL  HW1   1427   0.328   0.216   0.927 -0.1188 -1.9205  2.5902
  476SOL  HW2   1428   0.191   0.118   0.922 -1.2599 -0.7229 -1.0719
  477SOL  OW    1429   1.082   2.545   0.702  0.1760 -0.6346  0.1108
  477SOL  HW1   1430   1.126   2.609   0.634 -1.2089 -3.2902 -0.8855
  477SOL  HW2   1431   1.060   2.592   0.790 -0.8462  2.0859 -1.1413
  478SOL  OW    1432   1.378   2.282   0.194  0.4482 -0.2192  0.4576
  478SOL  HW1   1433   1.331   2.305   0.281  0.5174 -3.3401  0.6045
  478SOL  HW2   1434   1.326   2.201   0.155 -1.5168 -1.1638 -2.7578
  479SOL  OW    1435   2.189   1.542   2.515  0.3528  0.0797  0.2350
  479SOL  HW1   1436   2.219   1.447   2.501 -0.4538 -1.0911  0.8060
  479SOL  HW2   1437   2.090   1.547   2.537  0.0033  1.3200 -0.4226
  480SOL  OW    1438   0.238   2.706   0.299  0.6191  0.6348  0.3853
  480SOL  HW1   1439   0.163   2.635   0.295 -1.2612 -0.1629  0.7925
  480SOL  HW2   1440   0.213   2.783   0.364 -0.2094  0.3690 -0.3738
  481SOL  OW    1441   1.644   2.933   1.825  0.1275  0.7927 -0.2439
  481SOL  HW1   1442   1.605   3.006   1.884 -2.2851 -1.5685 -0.1436
  481SOL  HW2   1443   1.732   2.967   1.782 -1.4627  2.2769  0.8477
  482SOL  OW    1444   1.493   2.052   2.728 -0.5584 -0.6972 -0.1132
  482SOL  HW1   1445   1.399   2.090   2.754 -1.0874  1.6830  1.0809
  482SOL  HW2   1446   1.494   2.042   2.627 -2.7159 -0.4757  2.6301
  483SOL  OW    1447   1.246   2.194   2.804  0.8149  0.4200  0.1424
  483SOL  HW1   1448   1.181   2.274   2.806  2.1799 -0.9262  1.4291
  483SOL  HW2   1449   1.190   2.110   2.823  1.0855 -0.9227  1.6108
  484SOL  OW    1450   1.834   2.221   1.549  0.1213  0.0797 -0.4277
  484SOL  HW1   1451   1.895   2.223   1.467 -0.0191  2.0437  0.7031
  484SOL  HW2   1452   1.837   2.131   1.593 -2.6307  0.3286 -1.0013
  485SOL  OW    1453   2.388   2.998   0.174 -0.3172  0.2094 -0.7097
  485SOL  HW1   1454   2.385   3.005   0.071  1.6269  0.8356 -0.9381
  485SOL  HW2   1455   2.446   2.915   0.195 -0.1538  0.1198 -4.2485
  486SOL  OW    1456   2.469   0.391   2.725 -0.3791 -0.1682  0.8528
  486SOL  HW1   1457   2.445   0.360   2.821 -1.6372  2.2436  0.0823
  486SOL  HW2   1458   2.453   0.488   2.716  1.1289  0.8260  0.8778
  487SOL  OW    1459   1.527   0.419   0.580 -0.0462 -0.0971 -0.4427
  487SOL  HW1   1460   1.510   0.485   0.503  1.1791  2.4601 -0.6438
  487SOL  HW2   1461   1.466   0.447   0.656  0.7756  3.3125  1.0125
  488SOL  OW    1462   2.662   2.643   2.209 -0.3863 -0.4104  0.3798
  488SOL  HW1   1463   2.567   2.605   2.222 -1.2221  0.6245  1.7056
  488SOL  HW2   1464   2.724   2.568   2.176 -0.8316 -0.7875  1.3971
  489SOL  OW    1465   0.798   2.681   0.848  0.7870 -0.0117  0.1141
  489SOL  HW1   1466   0.779   2.585   0.836 -0.9012  1.4675  1.5338
  489SOL  HW2   1467   0.811   2.702   0.945 -2.1027 -1.6956 -2.8109
  490SOL  OW    1468   2.003   0.577   2.269 -0.2053 -0.1866 -0.4120
  490SOL  HW1   1469   1.964   0.595   2.177 -2.1344  2.7615 -1.3457
  490SOL  HW2   1470   1.927   0.565   2.334 -1.3817  2.7461 -3.2621
  491SOL  OW    1471   0.507   2.978   1.580 -0.7185 -0.0311  0.3145
  491SOL  HW1   1472   0.464   2.995   1.669  0.5813  0.1739 -0.6965
  491SOL  HW2   1473   0.476   3.049   1.517 -1.6368  2.9089  0.4318
  492SOL  OW    1474   1.196   0.175   0.759  0.2848  0.1605  0.6979
  492SOL  HW1   1475   1.176   0.184   0.862 -0.7692  0.4367  0.3262
  492SOL  HW2   1476   1.266   0.100   0.744  0.4365 -1.3488 -1.6760
  493SOL  OW    1477   0.510   2.055   2.623 -0.0395 -0.3065 -0.1733
  493SOL  HW1   1478   0.482   1.969   2.663 -1.3428 -1.9951 -1.7220
  493SOL  HW2   1479   0.604   2.045   2.580 -0.0805 -0.6574  0.2987
  494SOL  OW    1480   1.338   0.429   0.789 -0.4298  0.0715 -0.1767
  494SOL  HW1   1481   1.273   0.504   0.777  1.2434 -2.8822 -0.3339
  494SOL  HW2   1482   1.288   0.341   0.783 -0.3697  1.1777 -0.5861
  495SOL  OW    1483   2.614   0.316   2.100  0.1379  0.3026  0.1360
  495SOL  HW1   1484   2.611   0.378   2.020 -3.3764 -0.8400 -1.4107
  495SOL  HW2   1485   2.691   0.257   2.091  2.1429  2.2476  0.2149
  496SOL  OW    1486   3.045   1.709   1.564  0.3245 -0.1360 -0.1210
  496SOL  HW1   1487   2.979   1.637   1.600 -0.8930  1.8784  1.2707
  496SOL  HW2   1488   3.044   1.716   1.460  0.3570 -0.4689  0.0233
  497SOL  OW    1489   1.934   0.939   2.892  0.3737  0.3203 -0.0671
  497SOL  HW1   1490   1.867   0.915   2.821 -0.9403 -0.4613  0.2867
  497SOL  HW2   1491   2.023   0.886   2.886 -0.0177  1.8187  3.2272
  498SOL  OW    1492   0.634   2.418   1.092 -0.0689  0.6837 -0.1288
  498SOL  HW1   1493   0.581   2.497   1.044  0.4340  1.7141  1.5630
  498SOL  HW2   1494   0.730   2.409   1.055 -0.1024  1.7925 -1.8103
  499SOL  OW    1495   0.499   1.940   1.584  0.5685 -0.4161 -0.3477
  499SOL  HW1   1496   0.470   1.919   1.488 -2.3722  0.9191 -0.9873
  499SOL  HW2   1497   0.540   2.033   1.586 -2.0042  0.4581  0.4021
  500SOL  OW    1498   0.173   2.775   2.926  0.0737 -0.2233 -0.0639
  500SOL  HW1   1499   0.207   2.809   3.017 -1.4568  0.0971 -1.7368
  500SOL  HW2   1500   0.192   2.850   2.856 -0.3016 -0.6577  1.0438
  501SOL  OW    1501   2.182   2.622   0.136 -0.0329  0.0256 -0.5330
  501SOL  HW1   1502   2.218   2.657   0.050  0.3692 -0.7594  1.6517
  501SOL  HW2   1503   2.172   2.520   0.130  1.7843 -0.0911  2.8909
  502SOL  OW    1504   0.008   3.035   0.825  0.1713  0.0452 -0.4268
  502SOL  HW1   1505   3.075   2.988   0.737 -1.1721 -1.1331  1.0087
  502SOL  HW2   1506   0.097   3.000   0.865 -0.8998  0.7494 -0.9261
  503SOL  OW    1507   1.591   2.781   2.265  0.1969  0.0336  0.0733
  503SOL  HW1   1508   1.612   2.766   2.163 -2.8838  2.5250 -0.8911
  503SOL  HW2   1509   1.653   2.849   2.305 -1.2694 -1.2584 -2.3558
  504SOL  OW    1510   2.107   1.323   1.622  0.0591 -0.1392 -0.3051
  504SOL  HW1   1511   2.085   1.409   1.673 -2.1868 -1.9859  0.8254
  504SOL  HW2   1512   2.161   1.252   1.673 -1.0868  2.9656  1.7510
  505SOL  OW    1513   1.050   2.876   2.342  0.3593 -0.6799  0.4316
  505SOL  HW1   1514   1.042   2.799   2.408  0.5483  1.9740 -0.3452
  505SOL  HW2   1515   1.152   2.890   2.321 -1.4114 -0.0352 -0.7240
  506SOL  OW    1516   0.311   0.996   1.966  0.5113 -0.0423  0.1554
  506SOL  HW1   1517   0.239   0.946   1.916  0.8776  0.4086  1.9960
  506SOL  HW2   1518   0.327   0.958   2.058 -2.2649  1.9188  2.2692
  507SOL  OW    1519   2.281   0.102   0.542  0.0228  0.2024 -0.1709
  507SOL  HW1   1520   2.310   0.193   0.506  2.6273  0.1398 -0.9392
  507SOL  HW2   1521   2.272   0.101   0.642 -0.9766  3.3525  0.5835
  508SOL  OW    1522   2.066   0.436   1.532 -0.8054  0.2973  0.2707
  508SOL  HW1   1523   2.051   0.510   1.465 -0.7107 -1.1022 -0.2224
  508SOL  HW2   1524   1.987   0.434   1.598  0.9767  1.1993  1.0042
  509SOL  OW    1525   0.535   2.310   0.298  0.3645  0.2173  0.5941
  509SOL  HW1   1526   0.589   2.252   0.233 -0.0966 -0.3419 -4.0714
  509SOL  HW2   1527   0.588   2.347   0.375  0.2699 -0.8004 -0.3851
  510SOL  OW    1528   2.843   1.008   0.775  0.2856 -0.6779  0.8671
  510SOL  HW1   1529   2.889   1.102   0.776  0.1375  0.6631  2.2112
  510SOL  HW2   1530   2.854   0.965   0.867  0.0271  0.3041  0.2173
  511SOL  OW    1531   1.515   1.220   1.573 -0.3770  0.0695 -0.7467
  511SOL  HW1   1532   1.544   1.128   1.542 -1.4296 -0.4721 -2.5174
  511SOL  HW2   1533   1.581   1.296   1.552  0.3257 -1.3899 -1.4125
  512SOL  OW    1534   0.588   2.204   0.717 -0.3777 -0.1577  0.9800
  512SOL  HW1   1535   0.521   2.205   0.637 -1.4793  2.1166  1.0862
  512SOL  HW2   1536   0.558   2.128   0.782  0.4626  3.0027 -0.6691
  513SOL  OW    1537   2.429   2.205   0.777  0.6074  1.0853 -0.1366
  513SOL  HW1   1538   2.519   2.159   0.768 -0.7147 -1.3831 -1.8340
  513SOL  HW2   1539   2.431   2.305   0.748  2.2025  2.1930  1.9658
  514SOL  OW    1540   0.698   1.842   0.177  1.1495  0.3938  0.7023
  514SOL  HW1   1541   0.759   1.821   0.260 -0.3998  0.6220 -0.8234
  514SOL  HW2   1542   0.723   1.927   0.129 -1.3646 -1.3562  1.0398
  515SOL  OW    1543   0.244   0.282   2.812  0.0821 -0.8196 -0.3760
  515SOL  HW1   1544   0.296   0.312   2.897  3.1550 -1.4666 -1.0629
  515SOL  HW2   1545   0.267   0.350   2.742 -0.8217 -0.3131  0.9594
  516SOL  OW    1546   1.908   3.038   1.464 -0.5317 -0.1619 -0.4613
  516SOL  HW1   1547   1.903   0.042   1.446 -0.5497  1.8076  1.0696
  516SOL  HW2   1548   1.869   2.977   1.393 -1.0738  1.3291  3.0361
  517SOL  OW    1549   2.019   1.910   0.607  0.2662  0.6218 -0.0816
  517SOL  HW1   1550   1.995   1.961   0.525 -1.8385  1.1679  0.2268
  517SOL  HW2   1551   2.071   1.970   0.673  1.1381 -0.2043 -0.3614
  518SOL  OW    1552   2.421   2.595   1.636  0.6773 -0.0028  1.0283
  518SOL  HW1   1553   2.466   2.505   1.638 -1.1746 -2.4489 -2.6942
  518SOL  HW2   1554   2.408   2.632   1.541 -2.2595  0.5559  1.2855
  519SOL  OW    1555   2.900   2.830   3.085 -0.6131 -0.1941  0.3181
  519SOL  HW1   1556   2.878   2.855   2.988 -1.2199  0.0442 -0.9295
  519SOL  HW2   1557   2.976   2.883   0.025  1.2678 -3.2392 -0.4305
  520SOL  OW    1558   1.893   1.826   2.341 -0.0412  0.2964 -0.1875
  520SOL  HW1   1559   1.910   1.763   2.263 -1.0160  1.6729  2.7110
  520SOL  HW2   1560   1.832   1.775   2.411 -0.6711  2.0621 -0.1465
  521SOL  OW    1561   1.441   0.105   1.732 -0.0288 -0.6158  0.0186
  521SOL  HW1   1562   1.481   0.077   1.822  0.6536 -0.4194 -2.2157
  521SOL  HW2   1563   1.371   0.035   1.710  2.6513 -1.2584 -2.8144
  522SOL  OW    1564   0.287   1.612   2.187  0.6592 -0.7340 -0.2175
  522SOL  HW1   1565   0.294   1.651   2.097 -2.7096  1.0239  1.3298
  522SOL  HW2   1566   0.311   1.680   2.260  0.9773  1.8224 -2.8926
  523SOL  OW    1567   0.172   2.601   1.685  0.3464  0.3102  0.3366
  523SOL  HW1   1568   0.117   2.655   1.614 -3.3741  2.3849 -0.4763
  523SOL  HW2   1569   0.215   2.663   1.759 -1.6124  0.0646  0.9481
  524SOL  OW    1570   2.300   2.648   0.419 -0.7153  0.2138  0.1684
  524SOL  HW1   1571   2.259   2.706   0.492 -0.6385 -0.2706 -2.2279
  524SOL  HW2   1572   2.269   2.673   0.326 -3.2470 -1.0150 -2.1762
  525SOL  OW    1573   0.234   1.005   2.580  0.3212  0.0280  0.2942
  525SOL  HW1   1574   0.181   1.033   2.500 -1.4756 -0.7578  1.5291
  525SOL  HW2   1575   0.181   0.935   2.632 -2.5518  1.4939 -2.1439
  526SOL  OW    1576   0.126   2.731   0.820  0.9527 -0.4374 -0.0093
  526SOL  HW1   1577   0.063   2.657   0.800  0.0432  0.8555 -1.7682
  526SOL  HW2   1578   0.206   2.727   0.758 -3.3263 -1.0687 -0.6801
  527SOL  OW    1579   2.901   0.909   1.011 -0.0006 -0.2307  0.1230
  527SOL  HW1   1580   2.994   0.873   1.006 -0.2186  0.8627  2.4075
  527SOL  HW2   1581   2.849   0.843   1.072  1.4124 -0.4141  0.5902
  528SOL  OW    1582   0.927   1.286   2.589 -0.0405  0.5470 -0.1211
  528SOL  HW1   1583   0.885   1.275   2.679  1.3548  0.1811  0.9172
  528SOL  HW2   1584   1.008   1.226   2.578 -0.0978  0.5669 -1.7993
  529SOL  OW    1585   0.854   1.070   0.136 -0.0977 -0.0603 -0.3645
  529SOL  HW1   1586   0.760   1.068   0.172 -0.3100  1.4167  0.5180
  529SOL  HW2   1587   0.900   1.148   0.180 -0.2975 -0.9398  0.6183
  530SOL  OW    1588   1.400   0.467   1.182 -0.0494  0.1994 -0.0591
  530SOL  HW1   1589   1.420   0.411   1.265  0.2680  3.8715 -1.5324
  530SOL  HW2   1590   1.468   0.446   1.105 -0.5273 -0.1990 -2.1173
  531SOL  OW    1591   1.180   2.892   0.999  0.5723 -0.4562 -0.1680
  531SOL  HW1   1592   1.187   2.886   0.898  1.2735  1.7775  2.9084
  531SOL  HW2   1593   1.113   2.964   1.024 -0.5740 -1.3881 -1.3457
  532SOL  OW    1594   2.841   0.615   2.267 -0.5440 -0.2527 -0.1657
  532SOL  HW1   1595   2.881   0.568   2.186  0.0907  3.1202 -0.6741
  532SOL  HW2   1596   2.772   0.557   2.316  0.3264  0.5705 -2.1114
  533SOL  OW    1597   2.975   0.484   2.037  0.4683 -0.3205  0.2789
  533SOL  HW1   1598   2.895   0.470   1.972 -1.1011 -0.0047  0.3762
  533SOL  HW2   1599   3.021   0.395   2.052 -1.8854  1.6073  1.0239
  534SOL  OW    1600   2.233   0.206   2.602 -0.5561 -0.1329 -0.4019
  534SOL  HW1   1601   2.175   0.272   2.659  0.0090  1.9153 -2.8563
  534SOL  HW2   1602   2.308   0.175   2.667 -0.8280 -0.9563 -3.8449
  535SOL  OW    1603   0.036   0.614   2.924  0.5805 -0.2347  0.7606
  535SOL  HW1   1604   0.063   0.689   2.852  1.0250 -1.7803  1.2479
  535SOL  HW2   1605   0.107   0.587   2.987  3.0107 -3.2880  2.0372
  536SOL  OW    1606   0.881   2.166   1.296 -0.7812  0.4608 -0.0230
  536SOL  HW1   1607   0.890   2.124   1.387 -2.1380  2.7941  1.6006
  536SOL  HW2   1608   0.859   2.094   1.227 -3.9020  1.1157  0.2497
  537SOL  OW    1609   2.924   2.828   1.580  0.2625 -0.0409 -0.1083
  537SOL  HW1   1610   3.003   2.787   1.533  1.1431 -2.9157  3.7334
  537SOL  HW2   1611   2.839   2.783   1.546  3.0199  2.3460  0.4766
  538SOL  OW    1612   1.001   0.233   0.580 -0.3733 -0.0757  0.1615
  538SOL  HW1   1613   0.978   0.157   0.517 -2.2101  1.8071 -0.6534
  538SOL  HW2   1614   1.069   0.204   0.649 -0.8053 -0.1476 -0.7139
  539SOL  OW    1615   2.019   1.278   2.676  0.3523  0.0735  0.0052
  539SOL  HW1   1616   1.961   1.266   2.760 -0.6172  0.8797 -0.5194
  539SOL  HW2   1617   2.118   1.274   2.698 -0.4716 -0.0615 -1.7535
  540SOL  OW    1618   2.088   0.344   2.799 -0.8424  0.2844  0.1908
  540SOL  HW1   1619   2.106   0.310   2.895  3.3657 -0.7296 -1.2479
  540SOL  HW2   1620   2.069   0.443   2.804  0.7549 -0.8112  1.1534
  541SOL  OW    1621   1.281   0.708   2.552  0.1912 -0.3641  0.3425
  541SOL  HW1   1622   1.313   0.688   2.458  0.6989 -1.2837 -0.9659
  541SOL  HW2   1623   1.179   0.723   2.552 -1.9726  1.0399  0.1274
  542SOL  OW    1624   1.135   2.897   1.921  0.5315 -0.4989 -0.1097
  542SOL  HW1   1625   1.210   2.858   1.976 -0.2892 -2.7315  2.0780
  542SOL  HW2   1626   1.090   2.821   1.870 -2.4528 -0.3163  0.9752
  543SOL  OW    1627   0.346   0.053   2.019 -0.3459 -0.2473 -0.6451
  543SOL  HW1   1628   0.311   0.144   1.982  4.1215  4.1554  2.2072
  543SOL  HW2   1629   0.299   0.020   2.106 -1.7291 -0.4412 -0.9798
  544SOL  OW    1630   0.346   1.543   1.749 -0.5194  0.6953  0.2221
  544SOL  HW1   1631   0.291   1.586   1.671  0.9758 -0.1295  1.2400
  544SOL  HW2   1632   0.312   1.445   1.759 -0.0278  0.7259  0.7426
  545SOL  OW    1633   1.057   1.619   1.693  0.2550  0.2372 -0.5227
  545SOL  HW1   1634   1.157   1.608   1.710  0.3754  0.4262  0.8736
  545SOL  HW2   1635   1.021   1.705   1.734  0.3382  1.5325  0.2018
  546SOL  OW    1636   2.611   0.288   0.084 -0.7108 -0.1483  0.3507
  546SOL  HW1   1637   2.546   0.271   0.164  1.5682  0.8541  1.4273
  546SOL  HW2   1638   2.688   0.220   0.088 -2.1591 -0.1179  2.6007
  547SOL  OW    1639   1.853   3.011   0.882  0.0579  0.1314  0.0031
  547SOL  HW1   1640   1.831   2.940   0.817  0.1327  0.1811  3.0473
  547SOL  HW2   1641   1.822   0.005   0.851  0.9174  0.2424 -0.2297
  548SOL  OW    1642   1.672   1.759   0.335  0.1582 -0.1367 -0.2705
  548SOL  HW1   1643   1.650   1.659   0.330  0.8542  0.7039  2.1903
  548SOL  HW2   1644   1.682   1.797   0.429 -2.0307  4.2742  1.3445
  549SOL  OW    1645   2.098   3.086   3.073  0.6744  0.3342 -0.4115
  549SOL  HW1   1646   2.046   3.052   2.993 -0.6442 -1.2345 -1.3571
  549SOL  HW2   1647   2.198   3.075   3.058  1.6231 -0.8686 -0.7063
  550SOL  OW    1648   2.145   1.959   1.047 -0.5209  0.3482  0.6750
  550SOL  HW1   1649   2.089   1.994   1.122  1.3646  0.1357  1.3849
  550SOL  HW2   1650   2.113   1.865   1.019 -0.1340  2.1861 -1.0462
  551SOL  OW    1651   1.555   0.320   0.928  0.5794  0.2459 -0.3214
  551SOL  HW1   1652   1.504   0.260   0.990 -0.1811  0.6173 -0.1303
  551SOL  HW2   1653   1.488   0.358   0.863 -0.5215  0.2592 -2.9212
  552SOL  OW    1654   0.121   1.853   2.819 -0.6192  0.8407  0.4086
  552SOL  HW1   1655   0.101   1.925   2.888  1.2384  0.1886 -0.3258
  552SOL  HW2   1656   0.065   1.769   2.837 -0.9596  1.0716  1.1206
  553SOL  OW    1657   2.325   2.468   2.721 -0.1153 -0.2683 -0.7836
  553SOL  HW1   1658   2.360   2.381   2.755 -2.0032 -0.1776 -2.9829
  553SOL  HW2   1659   2.400   2.527   2.690 -2.2555  1.2897 -3.2501
  554SOL  OW    1660   1.312   1.557   1.645 -0.4501 -0.0305 -0.3373
  554SOL  HW1   1661   1.405   1.598   1.638  0.3632 -0.1037 -0.0258
  554SOL  HW2   1662   1.314   1.462   1.681  0.4717  0.7658 -1.6660
  555SOL  OW    1663   0.015   2.771   1.979 -0.0311 -0.2958  0.3079
  555SOL  HW1   1664   3.035   2.819   1.932 -1.3473  0.2349  2.0377
  555SOL  HW2   1665   0.011   2.789   2.078 -1.2612 -0.1653 -0.6243
  556SOL  OW    1666   1.049   1.487   1.428 -0.1248  0.6903  0.8375
  556SOL  HW1   1667   0.952   1.464   1.416 -0.1036  2.6792  2.5602
  556SOL  HW2   1668   1.057   1.549   1.511 -3.4028  0.1932 -0.8590
  557SOL  OW    1669   1.546   2.901   1.367 -0.6159  0.6004  0.4164
  557SOL  HW1   1670   1.462   2.887   1.314  2.8736 -3.5938 -0.8863
  557SOL  HW2   1671   1.553   3.005   1.372  2.6432  0.5241  0.2948
  558SOL  OW    1672   0.622   1.073   2.322 -0.5212 -0.1631  0.3162
  558SOL  HW1   1673   0.678   0.990   2.343 -2.2120 -0.7358 -1.1973
  558SOL  HW2   1674   0.676   1.154   2.348 -0.4016  2.6944  1.2737
  559SOL  OW    1675   0.893   2.582   2.740 -0.4475  0.4236 -0.1288
  559SOL  HW1   1676   0.832   2.508   2.705 -2.4820 -2.4832 -0.4632
  559SOL  HW2   1677   0.846   2.637   2.806  1.7297 -2.7460  0.1441
  560SOL  OW    1678   1.625   2.071   0.312  0.4118 -0.5695  0.1821
  560SOL  HW1   1679   1.574   2.019   0.241  0.1564 -0.3204 -2.3279
  560SOL  HW2   1680   1.575   2.076   0.398  3.0663 -2.5099  0.2534
  561SOL  OW    1681   1.059   0.487   0.535 -0.2026  0.1169 -0.3128
  561SOL  HW1   1682   1.046   0.387   0.539  1.0534  1.9068  3.0065
  561SOL  HW2   1683   1.085   0.522   0.629 -1.2478  0.7110  0.1622
  562SOL  OW    1684   0.788   1.784   2.611 -0.7315 -0.4133 -0.0882
  562SOL  HW1   1685   0.710   1.732   2.570  1.5428 -1.1237 -3.4213
  562SOL  HW2   1686   0.866   1.725   2.634  0.6085  0.3833  2.5620
  563SOL  OW    1687   1.692   2.007   2.323  0.1461 -0.1660  0.3916
  563SOL  HW1   1688   1.742   2.036   2.236  0.9864 -1.2715 -1.9261
  563SOL  HW2   1689   1.728   1.913   2.343  0.7797  0.0875  1.6623
  564SOL  OW    1690   2.694   0.962   1.555 -0.0251  0.7146 -0.3661
  564SOL  HW1   1691   2.625   1.005   1.618  0.5854 -2.0277  1.7711
  564SOL  HW2   1692   2.788   0.977   1.584  0.8146 -1.3031  2.6017
  565SOL  OW    1693   1.191   2.980   2.965  0.4314  0.4796 -0.3820
  565SOL  HW1   1694   1.225   2.967   2.872 -3.7059  0.5923 -2.0210
  565SOL  HW2   1695   1.090   2.962   2.975  2.2593 -0.3654 -0.2557
  566SOL  OW    1696   0.021   2.566   2.801  0.1740  0.4749  0.1786
  566SOL  HW1   1697   3.056   2.612   2.735 -1.0996  0.7650  4.1767
  566SOL  HW2   1698   0.058   2.634   2.870  0.4264 -1.2050  0.5817
  567SOL  OW    1699   1.942   0.444   0.698  0.5404 -0.4568  0.8642
  567SOL  HW1   1700   1.858   0.501   0.690  1.7884  0.7497  0.1424
  567SOL  HW2   1701   1.991   0.451   0.789  0.7503 -2.2071  0.3534
  568SOL  OW    1702   1.364   1.675   2.764 -0.1787  0.2889  0.0842
  568SOL  HW1   1703   1.322   1.696   2.852  0.8368  1.0692 -2.0145
  568SOL  HW2   1704   1.343   1.579   2.738 -2.3402 -1.5689  1.6877
  569SOL  OW    1705   1.330   1.756   1.057  0.0983 -0.3796 -0.0558
  569SOL  HW1   1706   1.341   1.857   1.061  2.8762 -2.2532  0.0421
  569SOL  HW2   1707   1.269   1.719   1.129  0.0904  0.9106  1.6504
  570SOL  OW    1708   2.917   2.337   1.498  0.3002  0.1171 -0.0264
  570SOL  HW1   1709   2.957   2.251   1.537  1.7936  0.2600 -0.2674
  570SOL  HW2   1710   2.837   2.317   1.437  1.1308 -0.8619  2.8133
  571SOL  OW    1711   0.302   1.970   1.746 -0.0454 -0.3083 -0.9117
  571SOL  HW1   1712   0.235   2.009   1.682  1.5940  0.2029  0.5200
  571SOL  HW2   1713   0.390   1.947   1.696  0.5743  0.2668  0.4819
  572SOL  OW    1714   0.286   2.158   2.716  0.5629 -0.4435  0.3954
  572SOL  HW1   1715   0.367   2.102   2.692 -1.3001 -0.3057  1.8443
  572SOL  HW2   1716   0.313   2.237   2.770  1.2894 -3.4682  2.4720
  573SOL  OW    1717   1.278   2.629   1.645 -0.2388 -0.0063 -0.0520
  573SOL  HW1   1718   1.250   2.603   1.549  0.6368 -1.0730 -1.2094
  573SOL  HW2   1719   1.377   2.667   1.651  1.8081  1.7472  0.8368
  574SOL  OW    1720   0.482   2.656   2.247  0.2123 -1.1550  0.2835
  574SOL  HW1   1721   0.525   2.743   2.278 -0.8681  0.1833 -4.2667
  574SOL  HW2   1722   0.400   2.630   2.302 -1.3298 -1.3586  1.7286
  575SOL  OW    1723   0.483   0.238   1.035 -0.0719 -0.2493  0.1896
  575SOL  HW1   1724   0.529   0.290   1.111 -1.0987  3.6204  1.7962
  575SOL  HW2   1725   0.529   0.147   1.030 -0.8407  1.7816 -1.3616
  576SOL  OW    1726   2.318   0.557   1.765  0.6332 -0.8032  0.2987
  576SOL  HW1   1727   2.340   0.592   1.673 -1.8115 -0.1474 -1.1320
  576SOL  HW2   1728   2.319   0.456   1.770 -1.0403 -0.9179  1.2081
  577SOL  OW    1729   2.021   3.052   2.796 -1.0542  0.4046 -0.2772
  577SOL  HW1   1730   1.961   0.034   2.775  0.0237 -0.1232  0.2010
  577SOL  HW2   1731   1.979   2.965   2.766 -0.2762  0.0040 -0.5833
  578SOL  OW    1732   1.480   2.386   1.995  0.6490  0.0349 -0.5629
  578SOL  HW1   1733   1.568   2.428   1.962  0.2216  0.4317  0.9379
  578SOL  HW2   1734   1.401   2.389   1.934 -0.3188  0.4584  0.8736
  579SOL  OW    1735   0.699   1.548   0.670 -0.3560  0.1305 -0.0693
  579SOL  HW1   1736   0.651   1.466   0.639  0.3714  1.5033 -3.5709
  579SOL  HW2   1737   0.701   1.549   0.770  3.0277 -2.2091  1.7776
  580SOL  OW    1738   0.834   0.592   0.828  0.0552 -0.0091 -0.4794
  580SOL  HW1   1739   0.766   0.529   0.871 -1.1361  0.5132  2.3848
  580SOL  HW2   1740   0.790   0.654   0.761  0.6893  0.5618  0.3747
  581SOL  OW    1741   1.760   1.271   1.767 -0.1386  0.4716 -0.3231
  581SOL  HW1   1742   1.798   1.316   1.847  0.1869  0.5092  0.4036
  581SOL  HW2   1743   1.750   1.337   1.691  0.0815 -0.6009  2.8206
  582SOL  OW    1744   0.449   0.884   1.281 -0.0287 -0.3623  0.7359
  582SOL  HW1   1745   0.511   0.961   1.255  0.7992 -3.9437  3.8268
  582SOL  HW2   1746   0.472   0.853   1.376 -1.7019  2.7141  1.0450
  583SOL  OW    1747   0.874   2.019   1.591 -0.0128 -0.1205  0.4268
  583SOL  HW1   1748   0.894   1.954   1.669 -0.7531  0.3544  1.7357
  583SOL  HW2   1749   0.783   2.069   1.603 -0.8526 -1.7000 -1.5845
  584SOL  OW    1750   2.443   2.465   0.722 -0.1128  0.2465  0.2193
  584SOL  HW1   1751   2.349   2.480   0.770  2.6605 -1.8288  1.4652
  584SOL  HW2   1752   2.492   2.553   0.702  0.9843 -1.1568  1.8757
  585SOL  OW    1753   2.537   0.673   0.022  0.1127 -0.2124  0.8460
  585SOL  HW1   1754   2.517   0.771   0.005 -3.7408 -3.4489 -1.8039
  585SOL  HW2   1755   2.518   0.649   0.116 -1.4289 -0.0745  1.2533
  586SOL  OW    1756   1.117   1.312   2.883  0.0982  0.7802 -0.3156
  586SOL  HW1   1757   1.010   1.321   2.889  0.8271  2.3760 -1.9753
  586SOL  HW2   1758   1.159   1.340   2.969 -0.0668 -1.5845 -1.3522
  587SOL  OW    1759   1.712   2.452   1.193  0.2141  0.0720  0.1331
  587SOL  HW1   1760   1.694   2.555   1.196  1.8382  0.3488 -0.5244
  587SOL  HW2   1761   1.687   2.404   1.280 -0.7437 -1.1600  2.3957
  588SOL  OW    1762   0.251   1.230   1.117  0.1299  0.6537 -0.1895
  588SOL  HW1   1763   0.312   1.271   1.047  1.1609 -1.3586 -2.7936
  588SOL  HW2   1764   0.168   1.188   1.076  0.3070 -0.3342  1.5101
  589SOL  OW    1765   2.505   0.083   0.831  0.6535 -0.2822 -0.1300
  589SOL  HW1   1766   2.535   0.137   0.910  2.0098 -0.1830  0.4476
  589SOL  HW2   1767   2.401   0.068   0.824 -0.7593 -2.0538 -2.3364
  590SOL  OW    1768   1.350   0.808   0.935 -0.0541 -0.0878  0.4796
  590SOL  HW1   1769   1.285   0.869   0.877  1.2567 -0.8726 -3.1619
  590SOL  HW2   1770   1.297   0.773   1.014 -0.8581  0.2651  3.8869
  591SOL  OW    1771   2.207   2.035   2.137 -0.5227 -0.0288  0.4078
  591SOL  HW1   1772   2.158   2.046   2.222  0.8399  2.7429 -1.1641
  591SOL  HW2   1773   2.299   1.995   2.148  0.8841  2.5573 -0.1508
  592SOL  OW    1774   1.538   1.637   0.987  0.0865  0.3332 -0.0764
  592SOL  HW1   1775   1.460   1.692   1.025  1.1673 -0.3718 -1.5742
  592SOL  HW2   1776   1.518   1.536   0.986  1.4102 -1.5462 -0.0123
  593SOL  OW    1777   0.330   0.175   0.621 -0.1105 -0.3914 -0.3639
  593SOL  HW1   1778   0.306   0.207   0.712  1.2345  1.9334  2.4788
  593SOL  HW2   1779   0.266   0.109   0.578 -1.2286 -0.7654  1.4784
  594SOL  OW    1780   2.764   0.500   3.067  0.1325 -0.6418  0.3497
  594SOL  HW1   1781   2.707   0.575   3.035 -1.9815  0.1973  1.3389
  594SOL  HW2   1782   2.720   0.428   0.025 -0.2230 -2.9607 -0.9567
  595SOL  OW    1783   1.081   0.281   3.043 -0.2290  0.1574  0.0605
  595SOL  HW1   1784   1.029   0.199   3.011 -0.9795  1.6860 -2.2687
  595SOL  HW2   1785   1.024   0.366   3.039  1.3939  3.1169 -0.4610
  596SOL  OW    1786   0.082   1.467   1.112  0.1268  0.0578 -0.4887
  596SOL  HW1   1787   0.164   1.405   1.099  0.9629  0.7137  0.0394
  596SOL  HW2   1788   0.015   1.411   1.162  1.3418  0.7826 -1.1296
  597SOL  OW    1789   2.633   1.285   0.479 -0.0705 -0.0538 -0.7399
  597SOL  HW1   1790   2.694   1.208   0.450 -3.8120  0.1881  1.5147
  597SOL  HW2   1791   2.594   1.256   0.569 -4.1409 -0.4374 -0.3992
  598SOL  OW    1792   0.256   0.881   1.650  0.1402  0.5974  0.0831
  598SOL  HW1   1793   0.223   0.863   1.744  0.4699  1.6513 -2.2876
  598SOL  HW2   1794   0.180   0.891   1.587  1.1920 -0.7143  1.2486
  599SOL  OW    1795   2.839   1.814   3.088 -0.1153 -0.0921  0.0446
  599SOL  HW1   1796   2.874   1.818   2.994 -0.1680  2.4862 -0.4630
  599SOL  HW2   1797   2.827   1.715   0.004  1.7217  0.9502 -0.1672
  600SOL  OW    1798   0.830   1.282   2.843 -0.1588 -0.2371 -0.0459
  600SOL  HW1   1799   0.850   1.184   2.863 -0.9636  1.6641 -2.2835
  600SOL  HW2   1800   0.734   1.301   2.871  1.3639 -0.7015 -1.3699
  601SOL  OW    1801   1.474   0.527   2.991 -1.0746  0.2562 -0.2836
  601SOL  HW1   1802   1.375   0.551   2.999 -0.4899 -1.2837  0.9347
  601SOL  HW2   1803   1.519   0.612   2.962  0.7748 -0.6406 -0.7347
  602SOL  OW    1804   0.583   0.519   0.934 -0.3059  0.5670 -0.2625
  602SOL  HW1   1805   0.532   0.595   0.976  0.9932  0.7441  1.1886
  602SOL  HW2   1806   0.593   0.442   1.005 -0.3630  0.6010  0.2527
  603SOL  OW    1807   0.455   0.106   1.447  0.0127 -0.4570 -0.0593
  603SOL  HW1   1808   0.522   0.174   1.475 -1.1746  0.0721 -1.5944
  603SOL  HW2   1809   0.411   0.131   1.361  1.0256 -1.5185 -1.0260
  604SOL  OW    1810   0.151   3.014   1.332 -0.2013 -1.1166  0.1258
  604SOL  HW1   1811   0.150   3.061   1.420 -1.9285  0.1089  2.8634
  604SOL  HW2   1812   0.199   3.070   1.258 -1.1822 -0.0832  1.0880
  605SOL  OW    1813   0.152   0.023   1.584  0.1859  0.2697  0.3961
  605SOL  HW1   1814   0.157   0.123   1.577  0.1327 -1.5589  0.4083
  605SOL  HW2   1815   0.208   3.082   1.660  0.4995  3.0775  0.5946
  606SOL  OW    1816   0.402   2.009   3.014 -0.3750  0.0978  1.1305
  606SOL  HW1   1817   0.306   2.036   3.017 -0.0624 -2.0763  0.8829
  606SOL  HW2   1818   0.421   1.950   2.935  0.1610 -0.6643  0.4240
  607SOL  OW    1819   0.571   0.545   0.673  0.6574 -0.1528  0.1682
  607SOL  HW1   1820   0.640   0.478   0.638  1.2661 -2.3721  0.7763
  607SOL  HW2   1821   0.556   0.529   0.772  0.9623  1.6513 -0.0905
  608SOL  OW    1822   1.611   1.804   2.745 -0.0916  0.3550  0.3775
  608SOL  HW1   1823   1.572   1.897   2.747 -1.0424  3.2095 -0.2967
  608SOL  HW2   1824   1.540   1.735   2.741 -4.0838  1.3587 -2.8901
  609SOL  OW    1825   0.207   0.520   1.046 -0.0019 -0.4800  0.0416
  609SOL  HW1   1826   0.156   0.550   0.961 -1.3404  0.8229  2.1962
  609SOL  HW2   1827   0.295   0.568   1.060  2.3266 -0.8766 -1.0638
  610SOL  OW    1828   0.642   2.478   2.639  0.3745  0.2913 -0.0926
  610SOL  HW1   1829   0.626   2.463   2.542  0.3412  0.6754 -2.9305
  610SOL  HW2   1830   0.611   2.571   2.662 -2.2919 -0.3288 -0.3819
  611SOL  OW    1831   2.007   0.946   0.167 -0.3058 -0.9473 -0.0567
  611SOL  HW1   1832   2.074   0.878   0.207  0.0374  0.7967  3.0141
  611SOL  HW2   1833   1.944   0.906   0.098 -2.2385 -0.0422 -1.7762
  612SOL  OW    1834   1.465   2.359   2.476  0.3872  0.1450 -0.0569
  612SOL  HW1   1835   1.484   2.424   2.546 -0.1038 -0.4691 -0.0713
  612SOL  HW2   1836   1.487   2.400   2.385  0.4937  2.7838  0.4999
  613SOL  OW    1837   1.550   1.417   0.003 -0.2564 -0.1569 -0.0844
  613SOL  HW1   1838   1.448   1.424   3.086  0.1803 -1.0565 -1.1783
  613SOL  HW2   1839   1.584   1.343   3.033  0.2367  0.6300 -1.4257
  614SOL  OW    1840   2.753   2.177   1.826 -0.4123 -0.8069  0.5153
  614SOL  HW1   1841   2.704   2.258   1.789 -0.4192 -3.8286  0.8946
  614SOL  HW2   1842   2.850   2.209   1.862 -0.0478 -1.8791 -0.5242
  615SOL  OW    1843   2.652   1.302   2.817  0.5123  0.0795 -0.1750
  615SOL  HW1   1844   2.581   1.373   2.830 -0.7288  0.8257  0.0934
  615SOL  HW2   1845   2.632   1.244   2.737 -2.3296  1.1154  0.6799
  616SOL  OW    1846   1.983   0.182   0.702  0.5363  0.3563  0.0663
  616SOL  HW1   1847   2.002   0.280   0.680 -0.7094  2.3819 -1.1726
  616SOL  HW2   1848   1.899   0.178   0.751 -0.7971 -1.2119  1.9197
  617SOL  OW    1849   0.582   1.402   2.999 -0.0181  0.2156 -0.3875
  617SOL  HW1   1850   0.613   1.387   0.001 -1.3336  1.7721 -0.0655
  617SOL  HW2   1851   0.487   1.430   2.994 -0.7086 -1.5637  2.3903
  618SOL  OW    1852   0.226   1.293   1.766 -0.1899  0.0525  0.6231
  618SOL  HW1   1853   0.134   1.295   1.722  1.2434 -1.1041  2.4091
  618SOL  HW2   1854   0.216   1.295   1.868 -0.1272 -1.1891  4.8664
  619SOL  OW    1855   2.598   0.921   1.974 -0.1595  0.0445  0.5963
  619SOL  HW1   1856   2.679   0.917   2.034 -0.3274 -1.0641  0.7074
  619SOL  HW2   1857   2.555   0.829   1.969 -2.2649  3.6072  2.1705
  620SOL  OW    1858   2.122   0.592   0.082  0.5157 -0.0913 -0.2504
  620SOL  HW1   1859   2.021   0.578   0.062  0.7931 -2.5365 -0.6370
  620SOL  HW2   1860   2.136   0.653   0.161 -2.0611  1.1373  1.1754
  621SOL  OW    1861   2.215   2.761   0.868 -0.0305 -0.3016 -0.2182
  621SOL  HW1   1862   2.184   2.803   0.779  0.4538  0.6683 -0.4221
  621SOL  HW2   1863   2.309   2.790   0.889 -1.4579 -2.6279 -0.7871
  622SOL  OW    1864   2.015   1.006   2.219 -0.1016  0.2324 -0.2388
  622SOL  HW1   1865   2.065   0.947   2.151  2.5800  0.9724 -0.3096
  622SOL  HW2   1866   1.924   1.024   2.180 -0.3458 -1.3526  1.8978
  623SOL  OW    1867   1.503   1.358   2.656 -0.1908 -0.3834 -0.5014
  623SOL  HW1   1868   1.403   1.380   2.656 -2.9976  1.9507 -1.6048
  623SOL  HW2   1869   1.547   1.376   2.567  0.0458  1.6746 -1.1145
  624SOL  OW    1870   1.729   0.150   0.823  0.6664  0.6669 -0.2723
  624SOL  HW1   1871   1.679   0.218   0.883 -1.8060 -0.6773 -1.1068
  624SOL  HW2   1872   1.684   0.149   0.728  0.9246 -0.1883 -0.7193
  625SOL  OW    1873   0.600   1.112   0.257  0.0270  0.0889 -0.3082
  625SOL  HW1   1874   0.578   1.072   0.351 -1.1439 -0.6217  0.5290
  625SOL  HW2   1875   0.519   1.097   0.190 -0.5776 -1.8188  1.7684
  626SOL  OW    1876   2.574   1.585   2.513 -0.2183  0.4121 -0.4143
  626SOL  HW1   1877   2.500   1.610   2.574 -2.0236  1.7275  0.0165
  626SOL  HW2   1878   2.565   1.486   2.491 -1.9341  2.4854 -1.8242
  627SOL  OW    1879   1.148   0.272   1.403  0.0989 -0.3554  0.1024
  627SOL  HW1   1880   1.244   0.301   1.388  0.3878  0.4928  0.2673
  627SOL  HW2   1881   1.131   0.229   1.493  1.4465  1.3757  3.0570
  628SOL  OW    1882   2.409   0.681   2.204 -0.0503 -0.7026 -0.3243
  628SOL  HW1   1883   2.353   0.596   2.216  0.9295  2.4489 -0.6928
  628SOL  HW2   1884   2.470   0.704   2.281  1.5883 -0.2758  0.2434
  629SOL  OW    1885   0.961   1.264   2.161  0.2282 -0.1001 -0.0560
  629SOL  HW1   1886   1.028   1.340   2.152 -0.7719 -1.2681 -2.0500
  629SOL  HW2   1887   0.929   1.240   2.068 -2.3002  0.5122  0.6916
  630SOL  OW    1888   1.579   0.260   2.623 -0.4201  0.0135  0.1913
  630SOL  HW1   1889   1.568   0.302   2.713  1.3456  0.2843 -0.9478
  630SOL  HW2   1890   1.492   0.278   2.570  2.3193  0.5467 -2.8862
  631SOL  OW    1891   2.199   1.063   1.221  0.2731  0.1206 -0.0292
  631SOL  HW1   1892   2.163   0.982   1.273  1.1167  1.3281 -1.9047
  631SOL  HW2   1893   2.143   1.146   1.241  3.6205 -2.3774  1.0422
  632SOL  OW    1894   1.956   1.657   0.679  0.9163  0.5966  0.0850
  632SOL  HW1   1895   1.983   1.755   0.677  0.8575 -1.0871  0.4306
  632SOL  HW2   1896   2.041   1.603   0.675 -0.7176 -1.2352  0.0233
  633SOL  OW    1897   0.620   0.832   0.778 -0.4230  0.1608  0.6378
  633SOL  HW1   1898   0.685   0.850   0.700 -1.4260 -0.2638  3.4805
  633SOL  HW2   1899   0.587   0.736   0.775  1.1849 -2.2566 -0.3911
  634SOL  OW    1900   2.238   2.964   0.409  0.0289 -0.7872 -0.2897
  634SOL  HW1   1901   2.261   3.044   0.470  2.4971 -2.3843 -1.0780
  634SOL  HW2   1902   2.282   2.980   0.319  1.5694 -0.9815  1.1499
  635SOL  OW    1903   2.559   2.902   1.645  0.5076 -0.0721  0.1487
  635SOL  HW1   1904   2.621   2.840   1.590 -0.5935 -0.5336 -2.2958
  635SOL  HW2   1905   2.520   2.855   1.724  2.0043 -0.4505  0.9609
  636SOL  OW    1906   1.128   0.923   0.834 -0.1192  0.8745 -0.2414
  636SOL  HW1   1907   1.102   0.966   0.923 -0.6492 -0.1314  2.6301
  636SOL  HW2   1908   1.111   0.983   0.751 -0.4576  0.8591  1.3459
  637SOL  OW    1909   2.396   1.616   3.079  0.2763  0.3404 -0.1479
  637SOL  HW1   1910   2.396   1.719   3.089 -0.2572 -0.1631  1.7990
  637SOL  HW2   1911   2.296   1.587   3.060  1.0176 -0.9136 -0.1919
  638SOL  OW    1912   0.287   2.666   2.488  0.1427 -0.2532 -0.4099
  638SOL  HW1   1913   0.194   2.642   2.457  0.6899 -0.9479 -1.5984
  638SOL  HW2   1914   0.296   2.608   2.575  0.1767 -0.5418 -0.3859
  639SOL  OW    1915   0.865   2.477   1.628  0.4072 -0.4890 -0.1162
  639SOL  HW1   1916   0.913   2.404   1.678  0.4831  0.7570 -1.5332
  639SOL  HW2   1917   0.768   2.478   1.644  0.0866  2.0229 -1.1767
  640SOL  OW    1918   0.759   0.811   2.357 -0.0783 -0.5154  0.2017
  640SOL  HW1   1919   0.841   0.834   2.305 -1.1800  2.1774  0.5305
  640SOL  HW2   1920   0.735   0.712   2.343 -0.7773  1.4686 -1.7194
  641SOL  OW    1921   0.389   0.721   0.201 -0.6900 -0.3336  0.2037
  641SOL  HW1   1922   0.423   0.703   0.292  0.6242  1.6239 -1.1610
  641SOL  HW2   1923   0.460   0.692   0.134  1.9343 -0.3503 -0.7121
  642SOL  OW    1924   0.579   1.778   0.640 -0.0709  0.0554 -0.2000
  642SOL  HW1   1925   0.607   1.679   0.637 -0.6945  1.1179  1.1834
  642SOL  HW2   1926   0.659   1.838   0.625  2.1196 -3.0588  1.5884
  643SOL  OW    1927   0.555   1.046   2.730 -0.0956  0.4715 -0.1440
  643SOL  HW1   1928   0.555   0.968   2.662 -2.5421 -0.9424 -2.9915
  643SOL  HW2   1929   0.505   1.126   2.693  0.3585  1.5482 -0.6841
  644SOL  OW    1930   0.978   2.418   0.281 -0.2745  0.1881 -0.9462
  644SOL  HW1   1931   0.914   2.489   0.247 -1.3933 -1.0568 -1.7181
  644SOL  HW2   1932   0.995   2.345   0.213  0.3970  1.5294 -1.0263
  645SOL  OW    1933   1.198   2.607   1.388 -0.1436 -0.2458 -0.0186
  645SOL  HW1   1934   1.096   2.589   1.380 -0.4284 -1.4521 -2.6338
  645SOL  HW2   1935   1.243   2.571   1.306  1.9584  1.2927 -0.9179
  646SOL  OW    1936   1.439   2.669   0.436 -0.8872 -0.0884 -0.5934
  646SOL  HW1   1937   1.417   2.654   0.337 -1.3384  0.4601  1.5054
  646SOL  HW2   1938   1.506   2.745   0.452  0.4443  0.5887  0.4544
  647SOL  OW    1939   0.012   0.233   2.360 -0.0113 -0.0827 -0.1215
  647SOL  HW1   1940   3.014   0.259   2.391  0.5069 -2.3420  1.4458
  647SOL  HW2   1941   0.064   0.201   2.442 -2.4625  0.8716 -1.3440
  648SOL  OW    1942   0.192   0.964   0.505 -0.6550  0.0182 -0.6332
  648SOL  HW1   1943   0.105   0.930   0.462 -2.0679 -0.1915  1.0486
  648SOL  HW2   1944   0.185   1.060   0.535 -1.5845  1.8702 -1.3358
  649SOL  OW    1945   2.161   2.072   2.836 -0.0367 -0.8022 -0.6361
  649SOL  HW1   1946   2.219   1.990   2.851 -2.1591 -1.5959 -0.6584
  649SOL  HW2   1947   2.074   2.052   2.785  1.0286 -1.0435 -1.5202
  650SOL  OW    1948   2.774   2.459   2.513 -0.3239 -0.2695 -0.0786
  650SOL  HW1   1949   2.749   2.363   2.537 -0.5299 -0.3602 -1.3036
  650SOL  HW2   1950   2.837   2.464   2.437  2.3760  2.1231 -1.7281
  651SOL  OW    1951   1.279   1.750   3.006  0.7261  0.3837 -0.2736
  651SOL  HW1   1952   1.371   1.745   3.043 -1.1262 -0.5944 -1.1163
  651SOL  HW2   1953   1.215   1.686   3.053  2.1349 -0.9569 -2.1214
  652SOL  OW    1954   0.553   0.238   1.856 -0.2841 -0.6033 -0.9885
  652SOL  HW1   1955   0.459   0.222   1.892  1.5919  1.2503  0.5469
  652SOL  HW2   1956   0.606   0.149   1.845 -1.7652 -0.1903 -0.2974
  653SOL  OW    1957   1.490   1.752   0.630 -0.7315 -0.3193  0.4769
  653SOL  HW1   1958   1.482   1.660   0.657  0.2214 -1.6271  0.1741
  653SOL  HW2   1959   1.588   1.775   0.615  3.1016  1.4164 -2.8625
  654SOL  OW    1960   1.815   2.997   2.127  0.4075  0.2662  0.0206
  654SOL  HW1   1961   1.756   3.074   2.097  2.4715 -0.4062  0.9708
  654SOL  HW2   1962   1.806   2.986   2.227  1.0030 -0.0290 -0.9558
  655SOL  OW    1963   2.633   1.803   1.502  0.0155 -0.2426 -0.0554
  655SOL  HW1   1964   2.680   1.786   1.409  1.9203  2.7827 -0.8540
  655SOL  HW2   1965   2.691   1.873   1.545 -2.1843  1.9088 -1.8663
  656SOL  OW    1966   2.160   0.819   2.948 -0.1010  0.5067  0.3571
  656SOL  HW1   1967   2.193   0.915   2.960  3.3905  2.6426 -0.6970
  656SOL  HW2   1968   2.225   0.746   2.982 -2.5343  1.3251  2.2112
  657SOL  OW    1969   3.031   1.487   0.312  0.4584  0.1517  0.1490
  657SOL  HW1   1970   3.079   1.399   0.328 -1.8000  1.3740 -0.7278
  657SOL  HW2   1971   2.986   1.482   0.221  1.6256  1.8544  1.2805
  658SOL  OW    1972   1.191   1.500   0.949 -0.2031  0.0372  0.3528
  658SOL  HW1   1973   1.204   1.406   0.989 -2.1458 -0.1266 -1.4584
  658SOL  HW2   1974   1.253   1.569   0.988 -3.6447 -0.5755  2.8036
  659SOL  OW    1975   1.561   0.575   2.272  0.3836 -0.3442  0.5704
  659SOL  HW1   1976   1.466   0.617   2.264  1.3721  2.6465 -1.5397
  659SOL  HW2   1977   1.569   0.487   2.221 -0.0752  1.1977 -3.3079
  660SOL  OW    1978   2.517   0.329   1.094 -0.0849  0.1649 -0.0893
  660SOL  HW1   1979   2.414   0.326   1.095  2.0248 -4.7368 -0.1204
  660SOL  HW2   1980   2.558   0.399   1.031  1.9574  0.3924  1.0492
  661SOL  OW    1981   0.320   1.328   0.144  0.8683 -0.5121  0.9645
  661SOL  HW1   1982   0.343   1.230   0.122 -2.6336 -2.3960  0.7922
  661SOL  HW2   1983   0.300   1.375   0.054  0.1503 -2.3157  1.4920
  662SOL  OW    1984   2.493   0.671   1.952  0.5470 -0.7590 -0.7481
  662SOL  HW1   1985   2.433   0.621   1.886 -3.0928 -1.8505 -1.3164
  662SOL  HW2   1986   2.461   0.682   2.049 -2.0578 -0.1672  1.6286
  663SOL  OW    1987   1.800   1.384   0.935  0.5533  0.5144  0.0877
  663SOL  HW1   1988   1.796   1.386   0.827 -1.6985  1.0864  3.0835
  663SOL  HW2   1989   1.896   1.411   0.969  1.3352 -0.1752  0.6564
  664SOL  OW    1990   0.618   3.087   1.025 -0.1447 -0.5268  0.1764
  664SOL  HW1   1991   0.621   3.076   0.922  0.2438 -0.1839 -1.3723
  664SOL  HW2   1992   0.610   3.000   1.076 -3.3931  0.1318  0.2198
  665SOL  OW    1993   1.358   2.694   0.185  0.3370 -0.1212  0.8241
  665SOL  HW1   1994   1.326   2.617   0.127 -0.6434 -0.2128 -1.6290
  665SOL  HW2   1995   1.380   2.772   0.120  0.7750  0.9525  0.4524
  666SOL  OW    1996   0.805   0.451   1.662 -0.3915 -0.0834 -0.0991
  666SOL  HW1   1997   0.750   0.528   1.694  0.2841 -0.8828  0.4401
  666SOL  HW2   1998   0.863   0.478   1.582  1.4292 -0.9531  0.0849
  667SOL  OW    1999   1.241   1.609   1.262 -1.2047 -0.4429 -0.4197
  667SOL  HW1   2000   1.160   1.545   1.283 -0.1400 -0.5186 -1.4875
  667SOL  HW2   2001   1.255   1.670   1.341  1.2870  1.5529  0.4296
  668SOL  OW    2002   0.192   1.562   2.617 -0.9480 -0.6279 -0.6513
  668SOL  HW1   2003   0.125   1.548   2.693 -2.4229 -0.4352  2.3066
  668SOL  HW2   2004   0.175   1.490   2.542  1.9479  1.6259 -1.6176
  669SOL  OW    2005   0.005   2.978   0.087 -0.7321  0.0301  1.0388
  669SOL  HW1   2006   0.002   3.082   0.075  0.7571  0.5092  0.6664
  669SOL  HW2   2007   0.101   2.940   0.102  0.8849 -1.1546 -1.8510
  670SOL  OW    2008   2.046   1.285   1.321  0.1040 -0.4365 -0.2629
  670SOL  HW1   2009   2.065   1.315   1.417 -3.6144  1.0822  3.2624
  670SOL  HW2   2010   1.943   1.290   1.305  1.3338 -1.3432 -0.9458
  671SOL  OW    2011   2.744   1.950   0.377 -0.2082  0.0932 -0.4479
  671SOL  HW1   2012   2.679   1.995   0.446 -2.7117 -0.3318  0.6914
  671SOL  HW2   2013   2.837   1.994   0.378 -0.2507  0.6894 -1.3211
  672SOL  OW    2014   1.877   1.246   2.437  0.7994  0.1720 -0.3490
  672SOL  HW1   2015   1.922   1.287   2.351  0.2304  1.4529 -1.7434
  672SOL  HW2   2016   1.924   1.278   2.520 -1.8942 -0.8529  0.2850
  673SOL  OW    2017   0.084   1.589   0.896  0.8438 -0.3789 -0.6131
  673SOL  HW1   2018   0.072   1.540   0.989 -0.0728  2.9531  2.5090
  673SOL  HW2   2019   0.002   1.575   0.836  0.1564  0.5556 -0.3300
  674SOL  OW    2020   0.623   2.180   1.576 -0.6323 -0.0333 -0.3525
  674SOL  HW1   2021   0.593   2.238   1.656 -1.9215  0.9282 -2.5234
  674SOL  HW2   2022   0.635   2.245   1.497  0.4357  2.6934 -2.3749
  675SOL  OW    2023   2.688   0.507   1.629 -0.2392  1.0877 -0.2423
  675SOL  HW1   2024   2.653   0.413   1.617 -1.4199  2.2235 -0.4697
  675SOL  HW2   2025   2.658   0.569   1.556 -1.2409  0.9454  2.6896
  676SOL  OW    2026   3.074   1.250   1.606  0.5815  0.7629 -0.2237
  676SOL  HW1   2027   3.024   1.171   1.645  3.2873 -2.4849  1.2386
  676SOL  HW2   2028   0.043   1.208   1.538  2.9316  0.4252 -0.7728
  677SOL  OW    2029   1.779   0.848   2.696  0.3032  0.0389  1.1075
  677SOL  HW1   2030   1.771   0.751   2.666 -2.1208  0.7382  0.1332
  677SOL  HW2   2031   1.760   0.910   2.613 -0.6745  1.5467  0.5472
  678SOL  OW    2032   3.029   1.200   0.771 -0.8507 -0.5306 -1.1247
  678SOL  HW1   2033   0.017   1.176   0.719  0.4027 -0.9427 -0.5951
  678SOL  HW2   2034   3.015   1.302   0.764  0.5935 -0.1830  0.2488
  679SOL  OW    2035   0.347   2.372   2.887  0.5002  0.6375  0.1856
  679SOL  HW1   2036   0.445   2.400   2.886 -2.1943 -0.0172 -4.1057
  679SOL  HW2   2037   0.313   2.368   2.980  0.3338 -0.4062  1.3469
  680SOL  OW    2038   2.427   1.491   1.204 -0.6579 -0.7810 -0.9004
  680SOL  HW1   2039   2.370   1.562   1.246  1.8498 -0.2396 -0.8571
  680SOL  HW2   2040   2.506   1.532   1.159  1.3732  1.2684 -1.1286
  681SOL  OW    2041   0.745   0.161   1.229  0.1794  0.7886 -0.1327
  681SOL  HW1   2042   0.755   0.108   1.317 -1.2652  0.9416  0.2453
  681SOL  HW2   2043   0.720   0.096   1.152  1.1346 -0.0860  1.1303
  682SOL  OW    2044   1.663   2.019   1.245 -0.8593 -0.0624 -0.1582
  682SOL  HW1   2045   1.628   2.058   1.159  1.7261 -0.8754  2.2853
  682SOL  HW2   2046   1.605   2.046   1.322  0.7737  0.5853 -0.5227
  683SOL  OW    2047   0.204   1.651   1.554 -0.5641  0.1421  0.0713
  683SOL  HW1   2048   0.107   1.679   1.566 -0.4234 -1.2952  2.6666
  683SOL  HW2   2049   0.227   1.652   1.455 -0.1709  0.1224  0.9685
  684SOL  OW    2050   2.988   1.901   1.729 -0.0380 -0.2010  0.6677
  684SOL  HW1   2051   3.019   1.885   1.823 -0.5750  0.0115  0.6717
  684SOL  HW2   2052   3.024   1.834   1.660  1.4098 -0.5181 -0.5394
  685SOL  OW    2053   1.512   0.914   3.093  0.4639  0.2234  0.1940
  685SOL  HW1   2054   1.509   0.842   3.019  0.0172  0.4722  1.9749
  685SOL  HW2   2055   1.455   1.000   3.071 -2.7710 -1.0895 -2.6195
  686SOL  OW    2056   0.145   1.363   2.426  0.1476  0.5759 -0.0447
  686SOL  HW1   2057   0.096   1.418   2.354 -2.0318 -1.1165  3.8268
  686SOL  HW2   2058   0.149   1.262   2.402  1.6360  2.1343 -1.3279
  687SOL  OW    2059   1.669   2.808   0.042 -0.2942  0.6287 -0.9491
  687SOL  HW1   2060   1.587   2.872   0.031 -1.6413 -1.8018 -1.0119
  687SOL  HW2   2061   1.721   2.822   0.131  0.8909  1.3691  0.3181
  688SOL  OW    2062   1.241   1.440   2.688 -0.3932  0.0345  0.0224
  688SOL  HW1   2063   1.191   1.389   2.763  0.9632  0.3387  0.7671
  688SOL  HW2   2064   1.189   1.424   2.598 -0.2176  0.0324  0.7766
  689SOL  OW    2065   1.558   0.675   1.323 -0.0975  0.0920  0.6109
  689SOL  HW1   2066   1.653   0.630   1.320 -1.6433 -1.5395 -0.2950
  689SOL  HW2   2067   1.482   0.613   1.303 -1.3305 -0.2238  1.3777
  690SOL  OW    2068   2.262   2.186   1.912 -0.4237  0.1784  0.0385
  690SOL  HW1   2069   2.250   2.122   1.991 -0.7539 -1.0171 -0.3361
  690SOL  HW2   2070   2.275   2.283   1.938  1.7903  0.6170  3.9593
  691SOL  OW    2071   2.348   2.162   0.394 -0.4151  0.7004 -0.0082
  691SOL  HW1   2072   2.289   2.233   0.437 -1.2370 -2.5329 -0.5774
  691SOL  HW2   2073   2.435   2.209   0.377  2.1934 -0.1392  0.6035
  692SOL  OW    2074   0.262   2.861   0.069  0.1665 -0.2760 -0.3510
  692SOL  HW1   2075   0.259   2.803   0.153 -1.2645  1.2272  0.0343
  692SOL  HW2   2076   0.340   2.918   0.064 -2.6962 -2.4301  2.6717
  693SOL  OW    2077   2.810   1.478   1.339  0.2026 -0.9572 -0.2198
  693SOL  HW1   2078   2.801   1.577   1.316 -0.5811 -0.7358 -0.2740
  693SOL  HW2   2079   2.722   1.447   1.384  0.0504  0.3002  0.1540
  694SOL  OW    2080   2.896   3.057   2.364  0.2285 -0.6138  0.5983
  694SOL  HW1   2081   2.811   3.001   2.350  1.5710  2.5105  2.9071
  694SOL  HW2   2082   2.907   0.001   2.458  1.9579 -0.1755 -2.3321
  695SOL  OW    2083   1.538   1.166   2.167  0.0070  0.1039  0.1308
  695SOL  HW1   2084   1.521   1.168   2.067 -1.6723 -4.5130 -1.9774
  695SOL  HW2   2085   1.470   1.124   2.230 -0.6043 -2.4832  0.6810
  696SOL  OW    2086   2.378   2.940   1.441  0.0025  0.0901 -0.3590
  696SOL  HW1   2087   2.279   2.944   1.477  2.5980  0.0086  1.9631
  696SOL  HW2   2088   2.442   2.934   1.517 -0.5489  0.8822 -1.6277
  697SOL  OW    2089   1.880   0.676   2.048  0.1991  0.0893 -0.3351
  697SOL  HW1   2090   1.892   0.748   1.980 -3.2814  0.3507  0.0784
  697SOL  HW2   2091   1.787   0.633   2.031  3.4536  0.1903  0.6348
  698SOL  OW    2092   2.359   1.690   0.343  0.0596  0.2854  0.4122
  698SOL  HW1   2093   2.455   1.703   0.311 -0.3104 -4.4284 -1.6735
  698SOL  HW2   2094   2.331   1.771   0.397  1.3407 -0.7458 -1.5590
  699SOL  OW    2095   2.328   1.213   0.456 -0.0551 -0.0570  0.5032
  699SOL  HW1   2096   2.310   1.298   0.401 -0.2911 -1.4742  0.6911
  699SOL  HW2   2097   2.272   1.213   0.541 -0.6359 -0.4437  1.1967
  700SOL  OW    2098   0.963   0.347   1.222  0.5041 -0.1971 -0.1570
  700SOL  HW1   2099   0.880   0.284   1.222 -1.1907  0.5120  1.7174
  700SOL  HW2   2100   1.039   0.306   1.275  2.8181  2.8998 -0.4470
  701SOL  OW    2101   0.203   0.578   0.436 -0.3451  0.3029 -0.0068
  701SOL  HW1   2102   0.138   0.570   0.513  0.3311 -1.1895  2.0525
  701SOL  HW2   2103   0.286   0.624   0.472 -1.8835 -0.0251 -0.6251
  702SOL  OW    2104   1.710   2.586   1.590  0.0817 -0.1534 -0.1368
  702SOL  HW1   2105   1.632   2.649   1.612 -0.0076  4.3657 -2.0889
  702SOL  HW2   2106   1.681   2.519   1.517 -1.5988  0.0403  1.4495
  703SOL  OW    2107   0.074   1.106   0.982 -0.0256 -0.0193  0.2396
  703SOL  HW1   2108   0.017   1.151   0.914  1.7239  0.7198  1.4700
  703SOL  HW2   2109   0.063   1.010   1.004  1.0470 -4.3003 -0.6137
  704SOL  OW    2110   1.342   2.859   2.319 -0.0151  0.3841  0.0473
  704SOL  HW1   2111   1.311   2.810   2.401 -1.9265  1.3936 -0.0518
  704SOL  HW2   2112   1.438   2.833   2.302  0.4586  1.1904  0.6946
  705SOL  OW    2113   2.806   2.371   2.933 -0.3031 -0.2819  0.8143
  705SOL  HW1   2114   2.765   2.465   2.917 -1.2579 -1.1422  0.7900
  705SOL  HW2   2115   2.908   2.379   2.951 -0.1617 -1.8901  2.0745
  706SOL  OW    2116   2.744   1.055   0.388  0.1004  0.9982 -0.2572
  706SOL  HW1   2117   2.807   1.006   0.454  1.1365 -1.5914  1.4043
  706SOL  HW2   2118   2.780   1.040   0.297  1.2481  0.4446 -0.4931
  707SOL  OW    2119   1.541   0.046   1.981 -0.3728  0.0595  0.2001
  707SOL  HW1   2120   1.458   0.065   2.041  0.1397  2.6812  3.1357
  707SOL  HW2   2121   1.618   0.106   2.005 -0.6743 -1.3428 -1.7138
  708SOL  OW    2122   3.045   2.862   1.223 -0.2086 -0.0984 -0.2321
  708SOL  HW1   2123   3.019   2.931   1.151 -0.8429 -3.3664 -0.9057
  708SOL  HW2   2124   0.033   2.901   1.266 -0.3190  1.0271 -1.1203
  709SOL  OW    2125   2.751   1.738   1.980 -0.1770  0.3517 -0.5781
  709SOL  HW1   2126   2.700   1.816   1.939  2.6184  1.2082 -0.3400
  709SOL  HW2   2127   2.732   1.653   1.922 -2.1646 -0.2282  1.2663
  710SOL  OW    2128   3.051   0.549   0.656 -0.4644 -0.2423 -0.0046
  710SOL  HW1   2129   2.952   0.570   0.657  0.1160  0.4787  0.8564
  710SOL  HW2   2130   3.073   0.447   0.655  1.2441 -0.1626  1.0087
  711SOL  OW    2131   2.802   2.095   2.312 -0.0124 -0.2435  0.5073
  711SOL  HW1   2132   2.792   2.000   2.271 -1.8757  1.6218  0.3159
  711SOL  HW2   2133   2.903   2.126   2.327 -2.2629 -1.2671  1.2866
  712SOL  OW    2134   3.044   3.064   2.804  0.2832  0.6386  0.3112
  712SOL  HW1   2135   0.024   3.042   2.738 -0.3220  0.3005 -0.8002
  712SOL  HW2   2136   3.067   0.049   2.859 -1.7304 -1.7282  2.2191
  713SOL  OW    2137   2.747   2.960   0.266  0.4927 -0.3772  0.3439
  713SOL  HW1   2138   2.831   2.910   0.290  0.6163 -1.1772  0.6050
  713SOL  HW2   2139   2.666   2.898   0.266  1.5451  2.6177  0.5369
  714SOL  OW    2140   1.942   2.037   2.682  0.0907 -0.2441  0.1973
  714SOL  HW1   2141   1.980   2.060   2.595 -1.4139  0.0870  0.3608
  714SOL  HW2   2142   1.876   2.108   2.715 -2.6962 -2.7151 -1.0611
  715SOL  OW    2143   0.130   0.346   1.216 -0.3199 -0.6459  0.7231
  715SOL  HW1   2144   0.160   0.408   1.140 -0.8162 -2.5338 -0.4109
  715SOL  HW2   2145   0.072   0.389   1.287  0.4099  1.0050  0.2125
  716SOL  OW    2146   0.156   0.668   1.441 -0.5011  0.0259 -0.2913
  716SOL  HW1   2147   0.246   0.634   1.455  0.2066  3.7938 -0.6300
  716SOL  HW2   2148   0.155   0.751   1.384  1.3534 -0.0412 -0.9702
  717SOL  OW    2149   1.593   0.760   2.896 -0.2436 -0.2215 -0.3201
  717SOL  HW1   2150   1.686   0.745   2.864 -1.3490  1.5486 -0.4305
  717SOL  HW2   2151   1.538   0.793   2.819  3.5445  1.5486  3.1022
  718SOL  OW    2152   1.390   3.077   0.704 -0.4844  0.2265 -0.9342
  718SOL  HW1   2153   1.454   3.039   0.775  1.2174 -0.1363 -1.5861
  718SOL  HW2   2154   1.444   0.045   0.649 -0.2709  3.4070 -0.7481
  719SOL  OW    2155   0.301   2.617   2.756  0.0469  0.5086  0.4877
  719SOL  HW1   2156   0.232   2.665   2.816  0.0945  0.7535 -4.6128
  719SOL  HW2   2157   0.317   2.528   2.804  2.2725 -0.4929  2.0786
  720SOL  OW    2158   2.192   0.832   2.105  0.2527  0.0652 -0.7001
  720SOL  HW1   2159   2.255   0.789   2.173  1.4547 -1.1206  1.5859
  720SOL  HW2   2160   2.161   0.776   2.026 -2.4323 -0.0870 -0.9783
  721SOL  OW    2161   2.313   0.103   1.328  0.1083 -0.3707 -0.0978
  721SOL  HW1   2162   2.339   0.009   1.358 -1.2166  0.3554  0.0002
  721SOL  HW2   2163   2.308   0.168   1.411  0.3910 -1.5809 -0.2028
  722SOL  OW    2164   1.013   0.745   2.541 -0.7955  0.3230  0.6650
  722SOL  HW1   2165   0.974   0.780   2.454  1.1740  3.1002 -0.0588
  722SOL  HW2   2166   0.995   0.814   2.618  0.4598 -2.0934 -0.1363
  723SOL  OW    2167   1.807   1.415   0.659  0.9683 -0.3967 -0.1805
  723SOL  HW1   2168   1.872   1.489   0.623  2.4859  0.1268  0.6632
  723SOL  HW2   2169   1.815   1.332   0.604 -2.8274 -1.0007 -1.4082
  724SOL  OW    2170   0.426   1.916   0.170 -0.4568  0.0824  0.3672
  724SOL  HW1   2171   0.519   1.875   0.172 -0.9215 -1.9870  0.0538
  724SOL  HW2   2172   0.416   1.964   0.080 -2.4144  2.4545 -2.0713
  725SOL  OW    2173   2.795   1.154   1.073  0.4161  0.0350  0.3297
  725SOL  HW1   2174   2.836   1.061   1.045 -0.9593 -3.0253  0.5267
  725SOL  HW2   2175   2.710   1.142   1.127  2.1287 -3.4543  1.7633
  726SOL  OW    2176   2.455   0.943   3.083 -0.0744 -0.0635 -0.0916
  726SOL  HW1   2177   2.510   1.024   3.060  1.9691 -0.9549  1.7263
  726SOL  HW2   2178   2.360   0.964   3.056  0.4107 -2.3354 -1.4790
  727SOL  OW    2179   2.424   0.655   2.735  0.0507 -0.1593 -0.2089
  727SOL  HW1   2180   2.385   0.644   2.827 -0.5502 -0.3241  0.6818
  727SOL  HW2   2181   2.365   0.720   2.680  1.8493 -1.1334  1.5606
  728SOL  OW    2182   1.524   2.116   1.476 -0.2473 -0.0804  0.9254
  728SOL  HW1   2183   1.520   2.126   1.576  0.6647 -0.4457  3.1935
  728SOL  HW2   2184   1.429   2.122   1.432 -0.9461  0.6082  0.9391
  729SOL  OW    2185   1.789   1.056   2.081  0.4039  0.2375 -0.4233
  729SOL  HW1   2186   1.792   1.020   1.987 -0.7027  0.5084  2.8012
  729SOL  HW2   2187   1.708   1.020   2.122 -0.6089  3.3457  2.2257
  730SOL  OW    2188   1.277   0.835   1.407 -0.5963  1.0829 -0.0962
  730SOL  HW1   2189   1.377   0.845   1.420  3.5571 -0.3637  0.3186
  730SOL  HW2   2190   1.263   0.768   1.334  2.0774 -0.1177 -1.1903
  731SOL  OW    2191   0.609   0.691   2.762 -0.0778  0.5187  0.0783
  731SOL  HW1   2192   0.529   0.681   2.830  3.0107 -2.0816  2.6492
  731SOL  HW2   2193   0.591   0.768   2.694 -1.3933  0.7241 -2.5174
  732SOL  OW    2194   0.789   0.849   0.581 -0.7429  0.5446 -0.5718
  732SOL  HW1   2195   0.793   0.940   0.538 -0.6903 -0.1445 -1.0426
  732SOL  HW2   2196   0.818   0.776   0.517 -0.9057  0.8730 -2.0001
  733SOL  OW    2197   1.088   2.215   2.062 -0.1762 -0.4747  0.2769
  733SOL  HW1   2198   1.099   2.313   2.070 -1.0346  1.7137  1.5928
  733SOL  HW2   2199   1.169   2.163   2.105 -2.6520  1.1120  1.3170
  734SOL  OW    2200   0.955   2.103   0.505 -0.5747 -0.1154  0.4957
  734SOL  HW1   2201   0.933   2.205   0.516 -2.2038 -3.1268  0.0447
  734SOL  HW2   2202   0.893   2.048   0.561  0.3129  0.1060 -2.8862
  735SOL  OW    2203   2.284   0.268   1.558 -0.1837  0.4190  0.0917
  735SOL  HW1   2204   2.313   0.253   1.657 -1.0835 -0.7090 -0.8182
  735SOL  HW2   2205   2.203   0.328   1.554 -0.3060  1.6881  0.5295
  736SOL  OW    2206   1.831   2.109   2.055  0.3635  0.1830 -0.5043
  736SOL  HW1   2207   1.887   2.027   2.026 -0.1354  0.3076  0.4499
  736SOL  HW2   2208   1.892   2.185   2.079  1.6013  0.9465 -0.1113
  737SOL  OW    2209   0.063   1.015   3.055 -0.3608  0.0895  0.1635
  737SOL  HW1   2210   0.084   0.968   0.044  0.0030 -1.4145  1.3101
  737SOL  HW2   2211   0.134   0.996   2.985  0.6135 -1.9454  0.0652
  738SOL  OW    2212   1.233   1.970   1.821 -0.0445 -0.3635  0.1234
  738SOL  HW1   2213   1.190   2.042   1.884 -1.1008  0.7411 -3.0588
  738SOL  HW2   2214   1.330   1.997   1.800 -2.7339 -1.6384  0.7914
  739SOL  OW    2215   1.758   2.197   2.493  0.0154  0.3262  0.7439
  739SOL  HW1   2216   1.727   2.117   2.434 -1.0549 -0.1968 -1.5621
  739SOL  HW2   2217   1.773   2.279   2.430  1.5432  0.8117  2.0265
  740SOL  OW    2218   2.167   2.097   0.775 -0.2397  0.2275  0.1187
  740SOL  HW1   2219   2.159   2.049   0.864  0.6459  2.4756  0.1165
  740SOL  HW2   2220   2.257   2.138   0.758  0.0878  0.1835 -0.6334
  741SOL  OW    2221   2.436   0.175   0.287  0.8518 -0.4486 -0.2046
  741SOL  HW1   2222   2.393   0.107   0.227 -0.1308 -2.8175  0.5060
  741SOL  HW2   2223   2.497   0.131   0.354  1.8964  0.0945 -1.7500
  742SOL  OW    2224   1.072   2.709   0.053  0.4625 -0.1623  0.4185
  742SOL  HW1   2225   1.129   2.639   0.006  1.0546  1.8616  1.1831
  742SOL  HW2   2226   0.993   2.665   0.105  1.1205  0.6558 -0.2867
  743SOL  OW    2227   2.194   1.677   2.270  0.3375  0.1852 -0.4430
  743SOL  HW1   2228   2.276   1.736   2.264  0.8260  0.9910 -0.7214
  743SOL  HW2   2229   2.178   1.633   2.364 -0.6385  0.7807  1.7771
  744SOL  OW    2230   0.425   0.048   2.948  0.3383  0.8771  0.0873
  744SOL  HW1   2231   0.424   3.088   3.035 -1.8310 -2.4030  1.5456
  744SOL  HW2   2232   0.353   0.118   2.946 -0.0502 -2.4173  0.8312
  745SOL  OW    2233   2.417   2.030   1.740  0.5344 -0.1720 -0.0386
  745SOL  HW1   2234   2.348   2.081   1.797 -1.2086  1.3439  1.6885
  745SOL  HW2   2235   2.445   2.086   1.658 -0.7887 -0.3232  1.6752
  746SOL  OW    2236   0.972   1.274   0.320 -0.0069 -0.2789 -0.4016
  746SOL  HW1   2237   0.955   1.359   0.272 -1.0883 -2.6299 -0.8262
  746SOL  HW2   2238   1.070   1.257   0.319  2.2457  0.5902  0.9697
  747SOL  OW    2239   0.914   1.761   1.243 -1.0661 -0.1706 -0.2272
  747SOL  HW1   2240   0.936   1.676   1.192  1.6302  2.1961 -1.5778
  747SOL  HW2   2241   0.884   1.839   1.189 -1.9061  1.7784 -0.4397
  748SOL  OW    2242   0.535   2.730   2.723 -0.5641  0.1658  0.1335
  748SOL  HW1   2243   0.448   2.688   2.743 -0.8201  1.3183  1.5279
  748SOL  HW2   2244   0.533   2.829   2.714  2.9109 -0.2450 -1.2414
  749SOL  OW    2245   0.366   0.628   1.816  0.0239  0.5972 -0.7428
  749SOL  HW1   2246   0.446   0.683   1.842 -0.9662  0.5692  2.4503
  749SOL  HW2   2247   0.345   0.622   1.716 -2.4191  1.4365 -0.4783
  750SOL  OW    2248   2.326   1.230   1.840  0.2462  0.2319 -0.3378
  750SOL  HW1   2249   2.318   1.329   1.874 -0.2016 -1.6904 -1.5968
  750SOL  HW2   2250   2.317   1.162   1.915 -1.0140  0.3850  1.9906
  751SOL  OW    2251   2.903   0.869   0.567  0.9697 -0.3757  0.0091
  751SOL  HW1   2252   2.889   0.928   0.653 -1.1564 -0.4472  1.2383
  751SOL  HW2   2253   2.864   0.775   0.580  0.4440  0.0386  2.5195
  752SOL  OW    2254   2.356   2.375   0.997  0.0097 -0.4616 -0.3586
  752SOL  HW1   2255   2.270   2.418   0.956 -2.3730 -1.2789 -0.1670
  752SOL  HW2   2256   2.400   2.303   0.935 -0.5152 -2.5455  0.0007
  753SOL  OW    2257   0.280   2.369   1.312  0.1276  0.1303 -0.0483
  753SOL  HW1   2258   0.311   2.381   1.407 -1.4314  0.5797 -1.5936
  753SOL  HW2   2259   0.182   2.349   1.314 -2.0679  0.6568  1.9300
  754SOL  OW    2260   2.781   2.441   2.060 -0.3003 -0.3594  0.4076
  754SOL  HW1   2261   2.836   2.378   2.003  2.2342  1.3929 -0.4848
  754SOL  HW2   2262   2.683   2.427   2.045  0.4129 -2.5816 -1.4507
  755SOL  OW    2263   2.491   0.568   0.272  0.5648 -0.1994  0.0117
  755SOL  HW1   2264   2.405   0.521   0.302  1.1628  0.3124  1.2436
  755SOL  HW2   2265   2.480   0.669   0.284  2.2829 -1.1470  1.9653
  756SOL  OW    2266   1.460   1.890   0.179  0.1278  0.1795  0.4340
  756SOL  HW1   2267   1.521   1.841   0.238  0.2548 -0.2450 -0.0556
  756SOL  HW2   2268   1.468   1.852   0.088  1.0089  3.8430 -0.3987
  757SOL  OW    2269   2.753   0.563   0.334 -0.3712 -0.2494  0.0297
  757SOL  HW1   2270   2.653   0.574   0.309  0.5153  0.6271  1.3938
  757SOL  HW2   2271   2.813   0.610   0.267  0.6258  0.6600 -1.7980
  758SOL  OW    2272   2.153   1.237   2.251  0.3068  0.1098 -0.2169
  758SOL  HW1   2273   2.084   1.304   2.205  1.4189 -1.5765 -0.4580
  758SOL  HW2   2274   2.111   1.147   2.263 -1.0231 -0.6430  0.8033
  759SOL  OW    2275   2.463   0.768   1.080  0.3264 -0.3955  0.1938
  759SOL  HW1   2276   2.457   0.860   1.126  0.3407 -1.2759  0.5613
  759SOL  HW2   2277   2.556   0.732   1.082 -1.4886  0.4574 -0.3366
  760SOL  OW    2278   0.868   1.462   1.817 -0.7672  0.2084 -0.4780
  760SOL  HW1   2279   0.929   1.518   1.757  0.5327  1.3733 -0.1556
  760SOL  HW2   2280   0.778   1.461   1.771  2.5430  2.1242  1.2636
  761SOL  OW    2281   0.887   0.650   0.402  0.1752 -0.1277  0.0517
  761SOL  HW1   2282   0.945   0.576   0.441  0.3583  0.2337  2.5492
  761SOL  HW2   2283   0.945   0.717   0.352  0.1704 -2.0538  2.8231
  762SOL  OW    2284   0.687   1.524   0.927  0.1999 -0.1322 -0.4847
  762SOL  HW1   2285   0.740   1.455   0.977 -1.0871 -2.4530  1.3136
  762SOL  HW2   2286   0.607   1.565   0.977  0.7289  3.9220 -0.2640
  763SOL  OW    2287   1.315   0.678   2.272  0.2865  0.2941 -0.3400
  763SOL  HW1   2288   1.340   0.776   2.259 -1.3367 -0.4691 -0.8523
  763SOL  HW2   2289   1.239   0.650   2.215 -1.8942 -2.6602 -0.7179
  764SOL  OW    2290   0.195   2.954   2.701 -0.1742 -0.4345  0.0349
  764SOL  HW1   2291   0.184   2.890   2.620  1.6910 -0.7296 -2.5547
  764SOL  HW2   2292   0.207   3.052   2.667 -0.5207  1.2651  3.7896
  765SOL  OW    2293   2.963   0.475   1.659  0.0649 -0.1591  0.7336
  765SOL  HW1   2294   3.003   0.394   1.712  1.6453  1.1139 -1.8663
  765SOL  HW2   2295   2.862   0.469   1.646  3.7953  1.1370 -0.8540
  766SOL  OW    2296   3.002   1.717   2.390  0.1947 -0.0632 -0.0488
  766SOL  HW1   2297   3.034   1.645   2.327  0.9405 -2.0272 -1.3626
  766SOL  HW2   2298   3.081   1.769   2.430  0.0996 -0.6416 -1.9403
  767SOL  OW    2299   1.650   1.421   2.448  0.4504 -0.1776 -0.6028
  767SOL  HW1   2300   1.620   1.449   2.356 -1.1879  2.1523  0.1952
  767SOL  HW2   2301   1.729   1.362   2.435  0.5473  2.5824  3.3995
  768SOL  OW    2302   1.835   1.778   0.123 -0.3215  0.2447  0.1928
  768SOL  HW1   2303   1.761   1.742   0.180  1.4555 -3.3262 -0.9170
  768SOL  HW2   2304   1.924   1.776   0.170  0.5828  0.4337  2.4283
  769SOL  OW    2305   0.121   1.226   0.562 -0.9113 -0.0038 -0.4898
  769SOL  HW1   2306   0.112   1.234   0.461  0.1920 -0.1169  1.1996
  769SOL  HW2   2307   0.187   1.298   0.598 -2.0285  0.3330  0.5239
  770SOL  OW    2308   2.133   0.261   3.083  0.5397 -0.6712 -0.1354
  770SOL  HW1   2309   2.113   0.308   0.075 -1.9447  0.2010 -0.1392
  770SOL  HW2   2310   2.130   0.161   3.089  2.9879 -1.9195 -0.7446
  771SOL  OW    2311   2.296   2.838   2.530  0.0948  0.2418 -0.3646
  771SOL  HW1   2312   2.324   2.898   2.453  2.8505  1.1856 -0.3275
  771SOL  HW2   2313   2.267   2.745   2.494  1.3760 -1.9236  3.3243
  772SOL  OW    2314   2.367   1.688   2.673 -0.1240 -0.0708 -0.0071
  772SOL  HW1   2315   2.342   1.737   2.757  2.0021 -1.7633 -1.7108
  772SOL  HW2   2316   2.294   1.637   2.623 -2.2589  0.0367 -1.7753
  773SOL  OW    2317   0.912   1.214   1.893 -0.1728 -1.0075  0.2887
  773SOL  HW1   2318   0.909   1.314   1.868 -1.5236 -1.1106 -1.9716
  773SOL  HW2   2319   0.883   1.151   1.816  2.0502 -1.6852  0.5959
  774SOL  OW    2320   1.627   0.037   2.511 -0.5478 -0.3577  0.3764
  774SOL  HW1   2321   1.602   3.067   2.588  2.4833 -1.2428 -0.4901
  774SOL  HW2   2322   1.613   0.133   2.542 -0.9535 -0.4399  2.1871
  775SOL  OW    2323   1.248   2.097   0.590 -0.3504  0.3304 -0.1226
  775SOL  HW1   2324   1.144   2.106   0.581  2.6844  0.1964  1.6764
  775SOL  HW2   2325   1.262   2.012   0.647 -0.7757  0.8161  0.2867
  776SOL  OW    2326   2.715   1.536   1.810 -0.7182  0.5495  0.1021
  776SOL  HW1   2327   2.790   1.508   1.743  1.3178 -0.6691 -3.1137
  776SOL  HW2   2328   2.635   1.565   1.755  0.0605  1.6488 -0.5823
  777SOL  OW    2329   3.013   1.813   2.009  0.1627  0.0709 -0.3814
  777SOL  HW1   2330   3.080   1.739   1.986  2.3767  0.3645 -3.6704
  777SOL  HW2   2331   2.917   1.787   1.999  3.3930 -0.7812  1.1103
  778SOL  OW    2332   1.910   1.331   2.158  0.8898  0.0045  0.1097
  778SOL  HW1   2333   1.897   1.400   2.084  2.3798  0.4744  2.1399
  778SOL  HW2   2334   1.838   1.261   2.147  2.7613 -1.6028  2.4004
  779SOL  OW    2335   2.570   1.332   0.203 -0.3618 -0.8697 -0.3927
  779SOL  HW1   2336   2.604   1.292   0.290 -0.6908 -1.6527  0.9711
  779SOL  HW2   2337   2.470   1.361   0.211  0.9295 -1.1679 -3.8402
  780SOL  OW    2338   2.122   2.608   2.844  0.1996  0.3160 -0.0379
  780SOL  HW1   2339   2.202   2.564   2.797  1.7111 -1.5821  1.4878
  780SOL  HW2   2340   2.046   2.538   2.853  2.3860 -1.6995  2.7659
  781SOL  OW    2341   2.495   1.620   1.682  0.5640 -0.6265 -0.0333
  781SOL  HW1   2342   2.556   1.685   1.627  1.9343 -2.7183 -1.6823
  781SOL  HW2   2343   2.430   1.574   1.612 -0.6520  0.3724  1.5658
  782SOL  OW    2344   0.639   2.112   2.953  0.3781  0.7109  0.3152
  782SOL  HW1   2345   0.694   2.036   2.914  0.4327 -1.4189 -0.7063
  782SOL  HW2   2346   0.545   2.078   2.959  2.3638  1.3688  1.8668
  783SOL  OW    2347   0.651   1.367   0.171  0.6482  0.1626 -0.0439
  783SOL  HW1   2348   0.669   1.271   0.189  1.3171 -2.1825 -0.0453
  783SOL  HW2   2349   0.580   1.398   0.235 -0.6497 -0.4332 -2.4889
  784SOL  OW    2350   2.464   0.995   1.199 -0.1936  0.4098  0.0127
  784SOL  HW1   2351   2.374   1.025   1.226 -0.3458  1.3497 -1.1096
  784SOL  HW2   2352   2.532   1.046   1.253 -2.1536  0.0288  0.1734
  785SOL  OW    2353   1.538   3.024   0.923  0.1230  0.3309  0.4820
  785SOL  HW1   2354   1.487   3.087   0.974 -1.9185  0.0083  0.0211
  785SOL  HW2   2355   1.635   3.050   0.909 -0.9812 -2.3721  1.4328
  786SOL  OW    2356   3.094   2.129   2.355 -0.1906  0.0750  0.2758
  786SOL  HW1   2357   0.008   2.122   2.454 -0.1784  2.0306 -3.1289
  786SOL  HW2   2358   0.090   2.155   2.315  1.1753  0.5674  1.2254
  787SOL  OW    2359   1.704   0.601   0.633 -0.1766 -0.1240 -0.5801
  787SOL  HW1   2360   1.677   0.661   0.712  0.2477  1.2205 -1.5081
  787SOL  HW2   2361   1.645   0.516   0.630 -1.2754  0.6875  1.3670
  788SOL  OW    2362   1.638   0.336   2.885 -0.2227 -0.1703  0.0689
  788SOL  HW1   2363   1.657   0.255   2.939 -1.1997  0.1097  0.0948
  788SOL  HW2   2364   1.566   0.389   2.931 -0.7722 -0.6176 -0.2657
  789SOL  OW    2365   2.853   1.986   1.336  0.0404 -0.0338  0.1069
  789SOL  HW1   2366   2.792   2.006   1.257 -1.3028 -0.7194  1.4932
  789SOL  HW2   2367   2.806   2.014   1.425  0.7139 -1.8691 -0.5163
  790SOL  OW    2368   1.211   0.092   2.660  0.2428  0.1360  0.0369
  790SOL  HW1   2369   1.253   0.001   2.663 -0.7001  1.1616  1.0140
  790SOL  HW2   2370   1.221   0.140   2.752  0.1150  1.9410  0.0072
  791SOL  OW    2371   1.083   0.631   0.118  0.2829  0.4427  0.0288
  791SOL  HW1   2372   1.126   0.574   0.187  0.4005  1.0801  0.2605
  791SOL  HW2   2373   1.147   0.639   0.036 -0.3936 -0.1022  0.9644
  792SOL  OW    2374   1.555   0.667   1.744  0.0851  1.0408 -0.4994
  792SOL  HW1   2375   1.499   0.754   1.767 -2.4237  1.5564  2.2783
  792SOL  HW2   2376   1.644   0.695   1.707  2.0885  2.2050 -0.6904
  793SOL  OW    2377   1.224   3.031   1.688  0.4970 -0.4615  0.4497
  793SOL  HW1   2378   1.201   2.972   1.605  2.4079 -1.9623  2.4536
  793SOL  HW2   2379   1.181   2.988   1.768  2.8279 -0.3925  1.9765
  794SOL  OW    2380   0.358   0.996   2.225 -1.3119 -0.4473 -0.0922
  794SOL  HW1   2381   0.457   1.022   2.250  1.3857  1.1038 -1.3811
  794SOL  HW2   2382   0.332   0.907   2.258 -1.9396 -0.4838 -1.8774
  795SOL  OW    2383   2.993   1.252   2.177 -0.1094  0.1687 -0.0927
  795SOL  HW1   2384   3.050   1.210   2.249  1.3576 -0.0321  0.0430
  795SOL  HW2   2385   2.898   1.221   2.181  4.6125 -0.3491  2.0981
  796SOL  OW    2386   1.710   1.596   1.203 -0.0525  0.9271 -0.5824
  796SOL  HW1   2387   1.686   1.597   1.106  2.3860  0.9540 -4.0782
  796SOL  HW2   2388   1.641   1.657   1.251 -0.7595  0.7015  0.0327
  797SOL  OW    2389   0.176   0.579   2.443  0.4556  0.7513  0.0237
  797SOL  HW1   2390   0.080   0.616   2.462  0.4513 -2.1240  0.8931
  797SOL  HW2   2391   0.183   0.510   2.368 -1.2678 -1.1966 -0.9252
  798SOL  OW    2392   2.972   2.299   1.923 -0.1861  0.6988 -0.3898
  798SOL  HW1   2393   3.052   2.340   1.870  1.1090  1.4398  1.2879
  798SOL  HW2   2394   3.007   2.223   1.983 -2.1267 -0.7159 -0.5836
  799SOL  OW    2395   2.563   2.588   2.634 -0.7785  0.2625 -0.2558
  799SOL  HW1   2396   2.648   2.559   2.595  0.4087 -3.2517  0.1243
  799SOL  HW2   2397   2.549   2.689   2.620  0.7118  0.9508  0.1397
  800SOL  OW    2398   1.144   1.372   0.691  0.0745  0.0941 -0.1972
  800SOL  HW1   2399   1.195   1.427   0.618  3.4509 -0.9181  1.7366
  800SOL  HW2   2400   1.149   1.417   0.786 -0.8852  2.4222 -3.6776
  801SOL  OW    2401   2.721   0.679   1.082  0.1298  0.1077  0.0535
  801SOL  HW1   2402   2.763   0.625   1.157 -0.0071 -0.9268  2.6075
  801SOL  HW2   2403   2.704   0.626   0.996 -0.3904  0.1256  1.6257
  802SOL  OW    2404   2.100   1.252   0.618  0.1314  0.5901 -0.2349
  802SOL  HW1   2405   2.092   1.192   0.695 -1.4612  0.4041  0.2093
  802SOL  HW2   2406   2.022   1.235   0.555  1.1217 -3.3080  1.5456
  803SOL  OW    2407   1.547   1.712   3.076 -0.6738  0.5415  0.3983
  803SOL  HW1   2408   1.609   1.750   3.000 -1.5119  2.5198  1.5949
  803SOL  HW2   2409   1.562   1.608   3.093 -0.0624 -1.3771  1.1825
  804SOL  OW    2410   1.851   2.047   0.014 -0.0943  0.0535 -0.3537
  804SOL  HW1   2411   1.821   1.984   0.090 -0.1613 -0.5941  0.6123
  804SOL  HW2   2412   1.769   2.070   3.048  1.5381 -2.0705 -0.4692
  805SOL  OW    2413   0.004   1.572   2.861  0.0028  0.8500 -0.1972
  805SOL  HW1   2414   0.036   1.599   2.954  2.1591 -0.5046  0.1033
  805SOL  HW2   2415   3.005   1.546   2.859  2.7025  0.0841  0.6233
  806SOL  OW    2416   0.678   0.357   3.035  0.5846  0.8831  0.0191
  806SOL  HW1   2417   0.767   0.400   3.033 -0.9111 -0.6903 -2.7534
  806SOL  HW2   2418   0.682   0.269   2.980 -3.6112  0.5074  0.3586
  807SOL  OW    2419   2.072   1.002   2.516 -0.2767  0.0887  0.1705
  807SOL  HW1   2420   2.041   1.008   2.419  0.5601 -2.2045  0.7337
  807SOL  HW2   2421   1.992   1.007   2.583  1.7912  0.3761  0.4243
  808SOL  OW    2422   0.385   1.063   0.103  0.4065  0.0652  0.3797
  808SOL  HW1   2423   0.431   1.034   0.013  1.3764 -1.9634  0.0873
  808SOL  HW2   2424   0.360   0.981   0.154 -1.6888  1.5394 -3.4441
  809SOL  OW    2425   2.484   0.993   0.476 -0.1739 -0.6200  0.0419
  809SOL  HW1   2426   2.581   1.017   0.455  0.3709 -1.5653  0.6477
  809SOL  HW2   2427   2.414   1.064   0.459 -1.4178  2.8731 -0.7246
  810SOL  OW    2428   1.239   0.470   0.312  0.2130 -0.4481 -0.4610
  810SOL  HW1   2429   1.173   0.470   0.388 -0.5958 -2.0300 -1.3695
  810SOL  HW2   2430   1.324   0.527   0.341  2.4962  0.9942 -0.0718
  811SOL  OW    2431   1.688   2.416   0.919  0.1648  0.1542  0.0029
  811SOL  HW1   2432   1.689   2.423   1.022 -0.6690  1.2487 -1.9748
  811SOL  HW2   2433   1.595   2.445   0.888  1.9348  0.4842 -0.0487
  812SOL  OW    2434   0.362   2.419   1.588  0.5849  0.4595  0.1836
  812SOL  HW1   2435   0.287   2.476   1.617 -1.8032  1.3525 -0.0378
  812SOL  HW2   2436   0.401   2.377   1.669 -0.2395 -0.0976 -1.2326
  813SOL  OW    2437   0.320   3.028   1.783  0.4102  0.1756  0.3133
  813SOL  HW1   2438   0.329   3.094   1.861  0.7989  0.2242 -1.9428
  813SOL  HW2   2439   0.314   2.930   1.815  2.9557  0.8240 -0.1322
  814SOL  OW    2440   0.737   0.060   2.627  0.0794 -0.0492 -0.1394
  814SOL  HW1   2441   0.700   0.130   2.557 -1.7719 -0.9750  0.9051
  814SOL  HW2   2442   0.832   0.041   2.603 -1.0726  1.8926  1.2476
  815SOL  OW    2443   0.367   0.763   2.332 -0.1287 -0.1741 -0.6742
  815SOL  HW1   2444   0.411   0.716   2.250  0.0468 -2.1047 -0.4079
  815SOL  HW2   2445   0.289   0.712   2.376  1.4829  0.9797  3.4748
  816SOL  OW    2446   2.378   0.363   0.747  0.2271  0.5983 -0.3102
  816SOL  HW1   2447   2.357   0.276   0.796  2.3325  3.8715  0.0016
  816SOL  HW2   2448   2.299   0.408   0.696 -1.8442 -0.2457 -0.0852
  817SOL  OW    2449   2.089   0.062   2.412 -0.6676  0.3544  0.3352
  817SOL  HW1   2450   2.138   0.104   2.489 -1.1087  1.0112 -0.2331
  817SOL  HW2   2451   2.047   3.069   2.434  2.5800 -0.0155  1.6890
  818SOL  OW    2452   2.317   2.760   2.952 -0.2904 -0.1226  0.1318
  818SOL  HW1   2453   2.303   2.832   2.878 -1.5301  1.5654 -0.8984
  818SOL  HW2   2454   2.234   2.702   2.938 -1.1238  4.0435  0.2310
  819SOL  OW    2455   2.315   1.428   0.257  0.2811  0.2890  0.5965
  819SOL  HW1   2456   2.266   1.452   0.171 -0.9830 -2.5047  0.3933
  819SOL  HW2   2457   2.319   1.515   0.314  0.2480 -2.8163  1.4119
  820SOL  OW    2458   2.895   1.851   2.819  1.1316  0.0841 -0.1620
  820SOL  HW1   2459   2.873   1.793   2.735 -2.0883  0.5902  1.8624
  820SOL  HW2   2460   2.897   1.952   2.795  0.7843  0.5266  1.1143
  821SOL  OW    2461   0.330   2.859   1.230 -0.0386  0.2305 -0.0277
  821SOL  HW1   2462   0.410   2.830   1.289  0.3247  2.3992 -0.1038
  821SOL  HW2   2463   0.260   2.903   1.289 -0.8042  1.3736  0.5662
  822SOL  OW    2464   0.024   2.640   2.407 -0.3748 -0.0559  0.3952
  822SOL  HW1   2465   3.075   2.664   2.500  1.4943 -0.5957 -0.7328
  822SOL  HW2   2466   3.055   2.572   2.361  0.6002  0.0006 -0.5918
  823SOL  OW    2467   1.539   2.559   2.659  0.0536  0.3724  0.2720
  823SOL  HW1   2468   1.541   2.486   2.728  0.0150 -1.5862 -1.3905
  823SOL  HW2   2469   1.633   2.563   2.620  0.8974  1.1846  0.3938
  824SOL  OW    2470   2.028   1.701   1.005  0.2174  0.1542 -0.8000
  824SOL  HW1   2471   2.033   1.610   1.043  1.9106 -2.1368 -0.0301
  824SOL  HW2   2472   1.938   1.731   0.970 -3.0928 -1.0459 -0.2686
  825SOL  OW    2473   2.172   1.171   0.134  0.5490  0.0022  0.2018
  825SOL  HW1   2474   2.115   1.089   0.152  1.1049  3.1152 -0.3452
  825SOL  HW2   2475   2.240   1.190   0.209  2.1064  2.1836 -1.5805
  826SOL  OW    2476   2.570   1.085   2.601 -0.0295  0.2208  0.0395
  826SOL  HW1   2477   2.628   1.052   2.671 -2.1285 -3.5176 -0.9949
  826SOL  HW2   2478   2.496   1.017   2.581  0.5903 -1.4969  0.9258
  827SOL  OW    2479   2.773   2.884   1.284 -0.1541 -0.1264 -0.3574
  827SOL  HW1   2480   2.877   2.870   1.271 -0.0348  1.4894 -4.0714
  827SOL  HW2   2481   2.727   2.917   1.197  0.4616 -0.1876 -0.7163
  828SOL  OW    2482   0.259   0.270   1.878  0.4183 -0.3704 -0.4005
  828SOL  HW1   2483   0.217   0.234   1.795  0.6912  0.9638 -0.9769
  828SOL  HW2   2484   0.225   0.360   1.907 -0.0468  1.0109 -1.9722
  829SOL  OW    2485   1.785   2.276   1.808  0.2736  0.1074 -0.1403
  829SOL  HW1   2486   1.826   2.206   1.866  1.0428  1.4639  0.4564
  829SOL  HW2   2487   1.815   2.269   1.709 -0.7979  1.9349  1.3603
  830SOL  OW    2488   1.541   1.174   1.197 -0.3403  0.1602  0.7792
  830SOL  HW1   2489   1.491   1.204   1.281  1.1574  1.4445  0.7262
  830SOL  HW2   2490   1.536   1.071   1.186 -2.1015 -0.6414 -0.0982
  831SOL  OW    2491   2.196   1.513   0.643  0.0294 -0.6707  0.0068
  831SOL  HW1   2492   2.295   1.520   0.609  1.0628  1.0171 -1.5758
  831SOL  HW2   2493   2.160   1.424   0.620 -0.7109  1.0767  1.2855
  832SOL  OW    2494   1.593   2.725   1.991 -0.3986  0.5587 -0.5778
  832SOL  HW1   2495   1.624   2.635   1.952 -0.0016  2.6721 -0.5384
  832SOL  HW2   2496   1.623   2.802   1.932 -0.7809  4.2203 -0.9352
  833SOL  OW    2497   2.971   3.087   1.634  0.6242 -0.5166 -0.3481
  833SOL  HW1   2498   2.943   3.000   1.593 -0.8149 -1.4521 -2.0070
  833SOL  HW2   2499   3.071   0.004   1.610  0.9028  1.0773 -0.2314
  834SOL  OW    2500   1.154   0.920   1.782 -0.2757 -0.2483 -0.3631
  834SOL  HW1   2501   1.103   0.840   1.748  0.8612 -1.4580 -0.4647
  834SOL  HW2   2502   1.142   1.006   1.728 -1.0962  1.1083  1.5401
  835SOL  OW    2503   0.405   1.351   2.233 -0.7816  0.0667 -0.4987
  835SOL  HW1   2504   0.415   1.318   2.330  2.7533 -0.4141 -2.8262
  835SOL  HW2   2505   0.372   1.450   2.230 -2.5877 -1.1632  0.3262
  836SOL  OW    2506   0.896   2.556   1.109  0.0400  0.5170  0.1737
  836SOL  HW1   2507   0.962   2.600   1.045 -3.4828 -1.5092  0.2483
  836SOL  HW2   2508   0.929   2.582   1.204 -0.7054  0.6991 -0.4144
  837SOL  OW    2509   1.793   0.464   1.576 -1.1705  0.2223 -0.0518
  837SOL  HW1   2510   1.767   0.499   1.486 -0.6614 -0.8546 -0.0633
  837SOL  HW2   2511   1.747   0.374   1.587 -1.2556 -0.9055 -3.6776
  838SOL  OW    2512   1.901   1.781   2.774  0.0338  0.4495  0.6148
  838SOL  HW1   2513   1.805   1.790   2.804  0.3279  1.8726 -0.2268
  838SOL  HW2   2514   1.929   1.874   2.749  0.9195  0.4289 -0.7161
  839SOL  OW    2515   0.360   2.919   2.470  0.7160 -0.8313 -0.2972
  839SOL  HW1   2516   0.331   2.818   2.489  0.8080  1.3715 -0.0371
  839SOL  HW2   2517   0.385   2.968   2.554 -0.0706 -0.5500 -2.5406
  840SOL  OW    2518   0.630   2.446   2.358  0.2923 -0.4070 -0.4096
  840SOL  HW1   2519   0.704   2.437   2.289 -2.3155  0.1758  0.4946
  840SOL  HW2   2520   0.564   2.513   2.318 -2.5112  3.6978  1.9202
  841SOL  OW    2521   1.997   2.317   0.329 -0.0242  0.3411 -0.6122
  841SOL  HW1   2522   1.904   2.322   0.286  2.3860  0.5915 -4.2667
  841SOL  HW2   2523   2.067   2.331   0.256 -1.3986 -1.5849  0.4509
  842SOL  OW    2524   1.442   0.884   2.697  0.0800 -0.7407 -0.3895
  842SOL  HW1   2525   1.378   0.822   2.649  1.0552  2.2248  1.3543
  842SOL  HW2   2526   1.489   0.941   2.628 -2.1750 -0.4067 -0.3435
  843SOL  OW    2527   1.177   2.719   0.526 -0.2491  0.1570 -0.1046
  843SOL  HW1   2528   1.276   2.714   0.503  0.3308  2.7918 -0.5009
  843SOL  HW2   2529   1.122   2.745   0.442 -0.2470 -1.9935  0.1240
  844SOL  OW    2530   2.951   0.425   2.873  0.1327  0.0157  0.6235
  844SOL  HW1   2531   3.026   0.497   2.878  1.5964 -1.3317 -2.1314
  844SOL  HW2   2532   2.878   0.442   2.942  1.0549  1.3329  2.4454
  845SOL  OW    2533   2.597   0.246   1.540  0.6659 -0.0459  0.2542
  845SOL  HW1   2534   2.621   0.154   1.575 -1.7178 -1.8966  0.3262
  845SOL  HW2   2535   2.496   0.253   1.528 -0.3615 -0.3121 -0.3898
  846SOL  OW    2536   0.266   2.057   2.028 -0.1622  0.8522 -0.2672
  846SOL  HW1   2537   0.294   2.016   1.940  0.7168  1.2156 -0.6983
  846SOL  HW2   2538   0.167   2.038   2.038 -2.7169 -1.4674  1.2090
  847SOL  OW    2539   1.638   0.080   1.337 -0.3527  0.5379  0.5259
  847SOL  HW1   2540   1.662   0.122   1.426  1.9317 -0.7442  0.4653
  847SOL  HW2   2541   1.708   0.108   1.261  0.3205 -4.7141 -0.4903
  848SOL  OW    2542   2.693   0.216   0.651  0.3311 -0.0600  0.2063
  848SOL  HW1   2543   2.772   0.231   0.718 -1.2283  1.3011 -1.8057
  848SOL  HW2   2544   2.609   0.188   0.702 -3.6177  0.9237 -0.8485
  849SOL  OW    2545   0.390   0.337   3.027  0.4198  0.0328  0.3345
  849SOL  HW1   2546   0.489   0.365   3.015  0.8832  1.0039  1.0477
  849SOL  HW2   2547   0.379   0.291   0.022 -1.2661 -1.2976  3.3818
  850SOL  OW    2548   2.973   2.286   0.704 -0.4879 -0.4545 -0.0341
  850SOL  HW1   2549   2.899   2.278   0.773  1.1727 -0.2611  3.6739
  850SOL  HW2   2550   3.038   2.210   0.725 -1.9534  1.9004 -1.6132
  851SOL  OW    2551   2.218   0.455   2.150 -0.0103 -0.3860  0.3769
  851SOL  HW1   2552   2.172   0.380   2.094  0.7443  1.2370  2.4470
  851SOL  HW2   2553   2.144   0.505   2.199 -0.4083  0.6555 -2.2100
  852SOL  OW    2554   1.698   1.717   2.497  0.1573  0.0890 -0.0093
  852SOL  HW1   2555   1.707   1.615   2.506  1.3481 -0.8504  3.5987
  852SOL  HW2   2556   1.687   1.764   2.587  0.4805 -0.5722  1.1473
  853SOL  OW    2557   0.815   0.128   0.158  0.2940  0.0171 -0.0001
  853SOL  HW1   2558   0.776   0.036   0.151  1.2554 -1.1372 -0.0304
  853SOL  HW2   2559   0.864   0.148   0.072  3.1661 -0.8853  4.1683
  854SOL  OW    2560   1.757   2.817   0.726 -1.1621 -0.0608  0.0123
  854SOL  HW1   2561   1.818   2.752   0.676  0.8277  2.7494  1.6014
  854SOL  HW2   2562   1.721   2.769   0.803 -1.0871 -1.3488 -1.2117
  855SOL  OW    2563   1.037   2.246   0.842 -0.3632 -0.1334 -0.1167
  855SOL  HW1   2564   1.041   2.280   0.940 -1.6088  0.3115  0.8296
  855SOL  HW2   2565   1.063   2.319   0.779 -0.3389  0.9342  0.3413
  856SOL  OW    2566   2.791   0.591   0.599  0.5135 -0.1549  0.4022
  856SOL  HW1   2567   2.787   0.564   0.499 -1.3494  1.0083 -0.4178
  856SOL  HW2   2568   2.698   0.590   0.632 -1.7075  2.0240 -2.7415
  857SOL  OW    2569   2.419   2.775   1.864  0.2844  0.3690  0.3237
  857SOL  HW1   2570   2.416   2.679   1.832 -3.2274 -0.3411 -0.5987
  857SOL  HW2   2571   2.330   2.818   1.840  1.5459 -0.8802 -0.0970
  858SOL  OW    2572   2.212   1.662   1.296  0.4192 -0.3876 -0.2820
  858SOL  HW1   2573   2.258   1.752   1.306  0.6763  2.2555  1.1744
  858SOL  HW2   2574   2.109   1.666   1.281 -3.8626 -1.2813  0.8699
  859SOL  OW    2575   1.148   0.180   1.020 -0.2852 -0.8027  0.0939
  859SOL  HW1   2576   1.092   0.089   1.026 -1.2981  1.0593 -2.0764
  859SOL  HW2   2577   1.101   0.256   1.065  2.5942  1.2823 -0.6828
  860SOL  OW    2578   2.959   2.615   0.128  0.5706 -0.4048 -0.2374
  860SOL  HW1   2579   2.948   2.695   0.061 -1.5267  1.1522  1.6496
  860SOL  HW2   2580   2.892   2.539   0.110 -1.6740 -0.8879  1.5225
  861SOL  OW    2581   2.392   1.853   1.338  0.0091 -0.4677 -0.3201
  861SOL  HW1   2582   2.393   1.925   1.265  2.6184 -3.8580 -1.8900
  861SOL  HW2   2583   2.481   1.842   1.381  1.0238  1.9471  0.6024
  862SOL  OW    2584   2.284   2.961   2.784  0.4982  0.5615  0.1670
  862SOL  HW1   2585   2.188   2.993   2.782 -1.2253  1.6073  0.7524
  862SOL  HW2   2586   2.300   2.907   2.696 -2.1812  1.2977 -2.0484
  863SOL  OW    2587   1.003   0.042   2.479  0.4944  0.6092 -0.2802
  863SOL  HW1   2588   0.996   3.050   2.428 -0.4596  0.2817  0.5970
  863SOL  HW2   2589   1.084   0.042   2.547  1.5291 -1.2444 -2.2247
  864SOL  OW    2590   2.173   2.533   1.740 -0.0580  0.2495  0.4047
  864SOL  HW1   2591   2.271   2.567   1.717  2.9055 -2.2013 -3.0858
  864SOL  HW2   2592   2.109   2.581   1.680 -0.5671  1.5957  1.8732
  865SOL  OW    2593   0.915   2.168   2.896  0.5394  0.0310 -0.0383
  865SOL  HW1   2594   0.881   2.201   2.805  1.2197 -0.0193  1.1016
  865SOL  HW2   2595   0.889   2.069   2.909 -1.1595  0.7020  0.8835
  866SOL  OW    2596   0.550   0.831   2.532 -0.2249 -0.1634 -0.0027
  866SOL  HW1   2597   0.463   0.805   2.487  2.7319  0.6960  0.7294
  866SOL  HW2   2598   0.623   0.837   2.460  1.6665  0.3924 -3.4894
  867SOL  OW    2599   0.231   3.022   2.249 -0.0051  0.8752 -0.2199
  867SOL  HW1   2600   0.132   3.000   2.252 -0.4709  2.9181  0.1492
  867SOL  HW2   2601   0.274   2.985   2.332 -0.0502 -0.5521  1.5981
  868SOL  OW    2602   1.097   2.637   0.951 -0.0528 -0.0514 -0.4581
  868SOL  HW1   2603   1.159   2.576   1.013  2.7442 -0.6173  1.5051
  868SOL  HW2   2604   1.121   2.737   0.964 -0.2870 -1.3643 -0.5700
  869SOL  OW    2605   1.306   1.423   0.470 -0.6957 -0.3075 -0.6180
  869SOL  HW1   2606   1.295   1.507   0.415  0.2477 -0.6839  0.9758
  869SOL  HW2   2607   1.383   1.422   0.539 -0.1060  1.1019 -2.6348
  870SOL  OW    2608   1.811   0.923   1.133 -0.1732 -0.4659 -0.1230
  870SOL  HW1   2609   1.707   0.901   1.127  3.0982 -3.0803  0.7815
  870SOL  HW2   2610   1.843   1.000   1.072  0.5406  2.5980  0.3660
  871SOL  OW    2611   0.966   1.994   0.861  0.0139  0.1735  0.2566
  871SOL  HW1   2612   1.027   1.929   0.813 -2.3002 -2.3324 -1.7061
  871SOL  HW2   2613   0.998   2.094   0.845  0.7546  0.5125 -1.0013
  872SOL  OW    2614   1.589   0.150   0.591 -0.5025  0.2846  0.1764
  872SOL  HW1   2615   1.565   0.244   0.572  1.3817 -0.1578 -0.4677
  872SOL  HW2   2616   1.575   0.095   0.507 -0.5164 -0.1249  0.2492
  873SOL  OW    2617   1.940   3.056   0.231  0.1327 -0.6985 -0.1639
  873SOL  HW1   2618   2.012   3.055   0.159  0.3493 -0.5140 -0.5085
  873SOL  HW2   2619   1.965   0.023   0.307 -3.3717 -1.2119 -0.1040
  874SOL  OW    2620   0.391   1.359   0.930  0.2221 -0.1614  0.3240
  874SOL  HW1   2621   0.424   1.448   0.968 -3.3197 -1.5274 -0.3560
  874SOL  HW2   2622   0.356   1.384   0.835  3.0231  0.8043  1.3029
  875SOL  OW    2623   2.611   0.183   2.616 -0.0301 -0.4583  0.4472
  875SOL  HW1   2624   2.572   0.271   2.651  2.9041 -0.6738 -0.1786
  875SOL  HW2   2625   2.551   0.133   2.560  1.6966 -2.7075 -2.5064
  876SOL  OW    2626   0.754   0.294   2.218  0.2896  0.4354  0.3596
  876SOL  HW1   2627   0.691   0.254   2.292 -1.0889 -3.0539  0.2683
  876SOL  HW2   2628   0.853   0.259   2.223 -3.3068 -1.5967  2.3521
  877SOL  OW    2629   2.481   2.859   0.919 -0.0521 -0.1999  0.3866
  877SOL  HW1   2630   2.477   2.894   0.823 -0.6512  0.6013  0.1562
  877SOL  HW2   2631   2.573   2.883   0.952 -0.5056 -2.2921  0.2776
  878SOL  OW    2632   1.967   2.330   2.138 -0.7698 -0.1946  0.0638
  878SOL  HW1   2633   2.022   2.367   2.056 -1.5821 -0.1997 -1.5809
  878SOL  HW2   2634   2.031   2.314   2.215  1.4321  0.5846  1.7743
  879SOL  OW    2635   1.586   1.665   1.675  0.7304 -0.6527 -0.4722
  879SOL  HW1   2636   1.621   1.642   1.768  2.1124 -3.4824  1.9562
  879SOL  HW2   2637   1.621   1.753   1.637 -1.5336 -0.6508 -1.0125
  880SOL  OW    2638   0.596   1.098   1.235 -0.2476  0.2945  0.6311
  880SOL  HW1   2639   0.682   1.129   1.286  0.5524  0.9118  1.2479
  880SOL  HW2   2640   0.531   1.177   1.236 -2.0324  0.0064 -1.9332
  881SOL  OW    2641   1.565   1.504   0.266 -0.4928  0.2586 -0.0769
  881SOL  HW1   2642   1.548   1.496   0.168  1.8616 -0.6972  0.1884
  881SOL  HW2   2643   1.527   1.427   0.318 -0.2643 -0.5874  1.0042
  882SOL  OW    2644   1.922   0.206   1.380 -0.4712  0.7084  0.0884
  882SOL  HW1   2645   1.901   0.205   1.279 -3.6837 -0.6367 -2.2593
  882SOL  HW2   2646   1.984   0.288   1.398  0.4144 -1.0063 -1.1494
  883SOL  OW    2647   1.772   0.998   2.457 -0.2029  0.0394  0.0504
  883SOL  HW1   2648   1.813   1.079   2.414  0.0793  1.2179  1.7878
  883SOL  HW2   2649   1.772   0.921   2.390  0.4357 -0.2939  2.0225
  884SOL  OW    2650   2.405   0.844   0.682 -0.2035 -0.3914  0.7576
  884SOL  HW1   2651   2.421   0.899   0.766  1.2806  0.0293 -0.9012
  884SOL  HW2   2652   2.425   0.903   0.601  2.8316  2.1343  1.2071
  885SOL  OW    2653   0.763   2.377   0.802  0.0201 -0.8690 -0.0064
  885SOL  HW1   2654   0.857   2.338   0.819 -0.7197  0.7502 -3.9618
  885SOL  HW2   2655   0.696   2.314   0.758 -2.6203  0.0916  1.0785
  886SOL  OW    2656   1.210   1.032   2.506  0.5656  0.2550 -0.4598
  886SOL  HW1   2657   1.155   0.994   2.582  1.7508  2.0830  0.4086
  886SOL  HW2   2658   1.304   1.059   2.533  1.8396 -1.7188 -2.6902
  887SOL  OW    2659   2.080   0.274   1.986 -0.1059 -0.1428  0.3631
  887SOL  HW1   2660   2.001   0.311   1.935  2.0026  0.0112 -1.1010
  887SOL  HW2   2661   2.058   0.180   2.015  0.1532  0.8811 -2.0963
  888SOL  OW    2662   0.002   1.696   1.285 -0.0218  0.0949  0.5027
  888SOL  HW1   2663   0.077   1.764   1.275  2.5394 -1.0611 -0.9616
  888SOL  HW2   2664   0.004   1.622   1.215 -2.9677 -2.8042 -0.6891
  889SOL  OW    2665   2.996   2.821   0.307  0.0047  0.2929 -0.6070
  889SOL  HW1   2666   2.965   2.735   0.263 -2.0313 -1.5131  0.9284
  889SOL  HW2   2667   3.046   2.873   0.235  0.6020 -2.4917 -0.4600
  890SOL  OW    2668   0.577   1.675   2.464  0.1688 -0.1079 -0.3591
  890SOL  HW1   2669   0.562   1.574   2.460 -0.8927 -3.0459 -1.4322
  890SOL  HW2   2670   0.495   1.733   2.438 -0.8829 -1.5388  0.0967
  891SOL  OW    2671   0.463   1.418   0.357  0.6195  0.3422  0.3012
  891SOL  HW1   2672   0.399   1.396   0.285 -1.9653  3.9600 -1.0092
  891SOL  HW2   2673   0.440   1.504   0.412 -1.2234 -0.0215 -1.1713
  892SOL  OW    2674   3.043   2.199   1.096  0.0716 -0.6586 -0.3196
  892SOL  HW1   2675   3.071   2.167   1.188  1.4742  1.4935  2.4847
  892SOL  HW2   2676   0.013   2.270   1.059 -0.0725  0.4639  0.5438
  893SOL  OW    2677   0.040   1.094   1.356  0.4529  0.3566  0.1182
  893SOL  HW1   2678   0.030   1.188   1.323  1.1577 -1.6921  2.7352
  893SOL  HW2   2679   3.061   1.035   1.319  0.7064  0.1743 -1.6351
  894SOL  OW    2680   0.254   1.809   0.956 -0.0624  0.1772 -0.1350
  894SOL  HW1   2681   0.225   1.854   1.045 -0.6320 -2.1877 -0.2011
  894SOL  HW2   2682   0.181   1.756   0.914 -0.2777 -1.6943 -2.2376
  895SOL  OW    2683   0.678   2.762   1.654 -0.6364 -0.1272  0.0870
  895SOL  HW1   2684   0.653   2.688   1.720 -0.6315 -1.8986  1.6303
  895SOL  HW2   2685   0.612   2.835   1.660 -1.3332  1.3295  1.5047
  896SOL  OW    2686   0.689   0.734   1.650 -0.4930 -0.6053 -0.0641
  896SOL  HW1   2687   0.637   0.825   1.639 -0.5129  0.1980  1.0084
  896SOL  HW2   2688   0.709   0.722   1.749  0.7959 -0.1992 -0.7942
  897SOL  OW    2689   1.011   1.020   1.055  0.1021 -0.3846  0.3674
  897SOL  HW1   2690   0.917   0.989   1.041 -2.5036  1.3302  0.1680
  897SOL  HW2   2691   1.034   1.012   1.154  0.9846 -0.0776 -0.5854
  898SOL  OW    2692   0.195   0.291   1.577  0.0596  0.3415  1.0324
  898SOL  HW1   2693   0.129   0.349   1.528  0.0897  2.6215  0.4812
  898SOL  HW2   2694   0.290   0.311   1.545  0.8903  1.0277  0.3653
  899SOL  OW    2695   1.647   2.835   0.475  0.0590  0.6177  0.2012
  899SOL  HW1   2696   1.691   2.850   0.570 -0.2721  2.0968 -1.9479
  899SOL  HW2   2697   1.716   2.833   0.399 -0.6471 -0.1251  1.4833
  900SOL  OW    2698   1.297   0.943   2.247  0.0298  0.5789 -0.5760
  900SOL  HW1   2699   1.255   0.948   2.340  1.7058  1.2454  0.9252
  900SOL  HW2   2700   1.236   0.985   2.176 -0.3519  0.5902  0.0476
  901SOL  OW    2701   1.052   1.961   0.299 -0.0937 -0.1682 -0.3488
  901SOL  HW1   2702   1.025   2.030   0.366 -0.3825  1.8625 -1.5100
  901SOL  HW2   2703   1.073   2.006   0.211  1.5871  0.8822 -1.1068
  902SOL  OW    2704   2.230   0.126   0.822  0.0858  0.3802  0.0095
  902SOL  HW1   2705   2.137   0.140   0.779  0.8522 -0.6074 -1.4478
  902SOL  HW2   2706   2.220   0.128   0.925  1.2836 -2.3728  0.6868
  903SOL  OW    2707   2.608   1.306   2.464 -0.0418 -0.4712 -0.1367
  903SOL  HW1   2708   2.692   1.323   2.423 -0.5033 -0.4194 -3.3544
  903SOL  HW2   2709   2.610   1.209   2.506 -1.2494  0.3855  0.1243
  904SOL  OW    2710   1.806   0.980   0.349  0.4703 -0.8344 -0.4616
  904SOL  HW1   2711   1.719   1.005   0.304 -0.5218 -2.3413  1.2433
  904SOL  HW2   2712   1.883   0.983   0.277  1.6520 -3.8098 -0.3504
  905SOL  OW    2713   1.678   2.740   1.207  0.7596  0.0241  0.0588
  905SOL  HW1   2714   1.618   2.794   1.273  2.1269  0.4342  0.6590
  905SOL  HW2   2715   1.777   2.761   1.226 -0.0160 -0.0651  0.7701
  906SOL  OW    2716   2.392   2.674   1.356  0.3009  0.0075  0.7648
  906SOL  HW1   2717   2.415   2.776   1.371 -0.3672 -0.6105  0.3223
  906SOL  HW2   2718   2.434   2.653   1.268 -0.0901 -0.6210 -1.6848
  907SOL  OW    2719   2.070   0.534   0.922  0.1911  0.3597  0.1115
  907SOL  HW1   2720   2.002   0.601   0.950 -1.4845  0.8142 -2.9239
  907SOL  HW2   2721   2.163   0.573   0.901 -0.9389  0.8257 -0.3383
  908SOL  OW    2722   1.779   0.405   1.080 -0.3028  0.3907  0.1240
  908SOL  HW1   2723   1.697   0.387   1.023 -0.6048 -1.2345  1.0754
  908SOL  HW2   2724   1.814   0.499   1.059 -2.9347 -0.4944  0.1593
  909SOL  OW    2725   2.831   2.243   0.953  0.0052  0.3438 -0.5442
  909SOL  HW1   2726   2.788   2.321   0.999  1.1127  0.9471 -2.0456
  909SOL  HW2   2727   2.916   2.205   0.996 -0.2038  0.6836  1.6353
  910SOL  OW    2728   2.378   0.255   2.222  0.0936  0.2220 -0.0739
  910SOL  HW1   2729   2.474   0.277   2.192 -0.9029 -0.7267 -2.1762
  910SOL  HW2   2730   2.311   0.322   2.190  1.4962  0.2953 -0.4480
  911SOL  OW    2731   1.798   2.557   2.568  0.4852  0.5799  0.5559
  911SOL  HW1   2732   1.877   2.541   2.623 -0.9068 -1.5450 -2.6851
  911SOL  HW2   2733   1.810   2.514   2.473  0.0357 -0.4414 -1.0319
  912SOL  OW    2734   1.078   1.025   1.320  0.0654 -0.2121 -0.1553
  912SOL  HW1   2735   1.158   0.963   1.346 -0.5914 -3.4852  3.0004
  912SOL  HW2   2736   1.108   1.122   1.339 -1.6429  0.8136  0.7804
  913SOL  OW    2737   2.810   2.516   1.692  0.3693 -0.5347  0.3242
  913SOL  HW1   2738   2.855   2.470   1.609  1.8252  1.1619 -0.5987
  913SOL  HW2   2739   2.873   2.588   1.728 -0.4451 -0.2126 -0.2059
  914SOL  OW    2740   1.314   0.007   0.278 -0.0766 -0.2393  0.0995
  914SOL  HW1   2741   1.293   0.089   0.224  1.7129  3.3367  1.9851
  914SOL  HW2   2742   1.411   0.004   0.309 -0.3921  0.8002 -0.3841
  915SOL  OW    2743   0.236   1.447   0.694 -0.1648 -0.5909  0.5771
  915SOL  HW1   2744   0.194   1.501   0.770  1.3864 -0.3099 -0.4961
  915SOL  HW2   2745   0.279   1.513   0.633 -0.1920 -1.6706 -0.7262
  916SOL  OW    2746   1.981   2.395   1.128  0.0767  0.4838 -0.2201
  916SOL  HW1   2747   1.887   2.403   1.161  0.9301  0.2087 -3.1816
  916SOL  HW2   2748   1.984   2.404   1.030 -0.1316  2.0219 -1.4304
  917SOL  OW    2749   1.801   2.411   2.330 -0.6550  0.1044 -0.3600
  917SOL  HW1   2750   1.848   2.372   2.249  0.1406  0.2441 -0.3494
  917SOL  HW2   2751   1.714   2.454   2.302  0.4332  1.1629  0.1598
  918SOL  OW    2752   2.243   2.021   0.178  0.3018 -0.0679  0.2276
  918SOL  HW1   2753   2.279   2.071   0.260 -1.5320 -0.0131  0.7464
  918SOL  HW2   2754   2.179   2.080   0.129  0.5044  0.0362 -2.3457
  919SOL  OW    2755   0.357   0.962   0.943 -0.2556 -0.0389  0.0603
  919SOL  HW1   2756   0.275   0.999   0.986 -2.0112 -0.8993 -0.2572
  919SOL  HW2   2757   0.428   1.033   0.943 -0.1125  0.7981 -0.3526
  920SOL  OW    2758   0.106   1.101   2.336  0.3665  0.5819 -0.0701
  920SOL  HW1   2759   0.041   1.022   2.330  1.1561 -1.4659 -1.3096
  920SOL  HW2   2760   0.198   1.076   2.291  0.8643  0.0199  0.2600
  921SOL  OW    2761   2.311   1.510   1.490  0.1005 -0.0854 -0.5011
  921SOL  HW1   2762   2.242   1.447   1.528 -0.2448  2.5907  0.8082
  921SOL  HW2   2763   2.270   1.568   1.417  1.6975  0.3429 -0.8824
  922SOL  OW    2764   3.046   1.871   0.597  0.3400  0.7020 -0.5937
  922SOL  HW1   2765   2.951   1.838   0.602  1.2282  0.1265  0.8889
  922SOL  HW2   2766   0.009   1.790   0.569  0.6689 -0.0930 -0.5173
  923SOL  OW    2767   0.870   1.513   0.200 -0.1230 -0.6410  0.0846
  923SOL  HW1   2768   0.849   1.592   0.261  1.3334 -1.8667  0.5871
  923SOL  HW2   2769   0.787   1.469   0.160  2.5110  0.9191 -0.1141
  924SOL  OW    2770   1.206   0.515   2.734  0.1569  0.2666 -0.2386
  924SOL  HW1   2771   1.127   0.471   2.683  1.6677 -0.5655 -0.8540
  924SOL  HW2   2772   1.236   0.593   2.672  0.2197  0.0836  3.0521
  925SOL  OW    2773   2.178   1.138   0.955  0.3313  0.3796 -0.2646
  925SOL  HW1   2774   2.221   1.230   0.947  0.3947 -1.9565  3.2013
  925SOL  HW2   2775   2.187   1.096   1.043 -0.2274 -2.6736 -1.8586
  926SOL  OW    2776   0.194   2.930   0.991  0.6024 -0.1998 -0.0324
  926SOL  HW1   2777   0.182   2.844   0.936  0.9527 -2.1173  0.1644
  926SOL  HW2   2778   0.234   2.917   1.084  0.3756 -0.1653 -2.2234
  927SOL  OW    2779   0.360   1.805   2.355  0.4810 -0.2069 -0.4183
  927SOL  HW1   2780   0.374   1.901   2.334 -0.4356 -1.1353  2.4339
  927SOL  HW2   2781   0.280   1.801   2.421  0.1590  0.3900 -2.6973
  928SOL  OW    2782   0.198   1.246   2.066  0.0428  0.5895  0.1113
  928SOL  HW1   2783   0.267   1.292   2.126  0.5437 -0.1723  0.8340
  928SOL  HW2   2784   0.240   1.159   2.040  1.4959 -1.5042  2.5998
  929SOL  OW    2785   2.758   1.431   0.965 -0.7860 -0.3815 -0.5535
  929SOL  HW1   2786   2.663   1.414   0.924  1.8086 -0.5531  0.2884
  929SOL  HW2   2787   2.791   1.351   1.019  0.2097  1.2843 -0.0167
  930SOL  OW    2788   1.828   0.130   2.990  0.7889  0.0244  0.0239
  930SOL  HW1   2789   1.915   0.118   3.037 -2.3460  0.5409  3.8413
  930SOL  HW2   2790   1.840   0.136   2.888  2.3577 -0.5316 -2.6770
  931SOL  OW    2791   2.927   0.648   0.154  0.3187  0.6013 -0.3522
  931SOL  HW1   2792   2.872   0.597   0.087 -1.4332 -3.0052 -1.9067
  931SOL  HW2   2793   3.018   0.605   0.168 -0.7988  1.4857  1.9862
  932SOL  OW    2794   1.232   0.672   1.199  0.5246 -0.0878 -0.1479
  932SOL  HW1   2795   1.131   0.665   1.170 -0.0235 -1.8652  1.5051
  932SOL  HW2   2796   1.281   0.581   1.201  1.2993 -1.4487 -0.5037
  933SOL  OW    2797   2.883   0.303   0.862 -0.3012  0.1141 -0.2017
  933SOL  HW1   2798   2.899   0.275   0.956  1.2203 -2.5090 -1.7767
  933SOL  HW2   2799   2.964   0.307   0.799  1.5120  0.0601  0.0079
  934SOL  OW    2800   2.349   1.280   2.502  0.0575  0.2074 -0.1672
  934SOL  HW1   2801   2.446   1.306   2.479 -3.5455  1.7641 -0.3627
  934SOL  HW2   2802   2.293   1.239   2.426 -0.2465 -2.2282  1.2589
  935SOL  OW    2803   2.512   1.400   0.813  0.0742  0.0289  0.0860
  935SOL  HW1   2804   2.478   1.450   0.730 -0.4224 -2.0898  2.5930
  935SOL  HW2   2805   2.559   1.317   0.779 -1.0054  0.9980  1.4406
  936SOL  OW    2806   0.496   3.022   0.106  0.2442  0.6222  0.0276
  936SOL  HW1   2807   0.593   2.993   0.093  0.2192 -1.1000 -1.6294
  936SOL  HW2   2808   0.478   3.040   0.203 -0.2624  0.0290  0.0902
  937SOL  OW    2809   3.055   1.941   1.016 -0.2307 -0.1144 -0.2641
  937SOL  HW1   2810   3.035   2.027   1.070 -1.1730 -2.1673 -0.3126
  937SOL  HW2   2811   0.032   1.883   1.055 -0.7378 -2.5161  1.8188
  938SOL  OW    2812   0.035   2.533   0.307  0.3811 -0.0214  0.7036
  938SOL  HW1   2813   3.072   2.504   0.385 -0.5243 -1.1293 -0.1161
  938SOL  HW2   2814   3.072   2.579   0.234 -0.7442 -0.6019 -0.3671
  939SOL  OW    2815   0.975   0.696   1.725 -1.0791  0.1266  0.9891
  939SOL  HW1   2816   1.049   0.660   1.665  0.9846  0.3581 -0.6173
  939SOL  HW2   2817   0.911   0.747   1.663  1.7508  0.0952 -2.5073
  940SOL  OW    2818   2.936   2.679   2.633 -0.0247 -0.4937 -0.0922
  940SOL  HW1   2819   2.883   2.744   2.694  1.0567  1.9729  0.8784
  940SOL  HW2   2820   2.876   2.602   2.611 -2.1398 -1.6301 -1.4598
  941SOL  OW    2821   2.678   2.784   1.954  0.9276 -0.0893 -0.2513
  941SOL  HW1   2822   2.580   2.795   1.925  2.4639  0.2851 -4.1573
  941SOL  HW2   2823   2.691   2.753   2.048  0.6883 -0.0918 -0.0017
  942SOL  OW    2824   1.575   2.771   0.959 -0.6082  0.7432  0.0723
  942SOL  HW1   2825   1.616   2.758   1.056  0.0040  0.4479 -1.7403
  942SOL  HW2   2826   1.549   2.868   0.944 -0.9581  1.0599 -0.0619
  943SOL  OW    2827   1.232   1.700   2.421 -0.0112 -0.1497  0.4406
  943SOL  HW1   2828   1.223   1.603   2.443  1.5666  1.5336  0.5952
  943SOL  HW2   2829   1.172   1.723   2.343  0.8254 -1.2769 -2.6700
  944SOL  OW    2830   2.047   1.432   1.053  0.1440  0.2755  0.9770
  944SOL  HW1   2831   2.064   1.387   1.142  0.4712  1.3712 -1.2107
  944SOL  HW2   2832   2.134   1.433   0.997  2.0502 -0.2870  2.4779
  945SOL  OW    2833   0.014   0.157   0.088 -0.5159 -0.4057 -0.5128
  945SOL  HW1   2834   0.021   0.229   0.158 -0.8913 -2.2738  1.8802
  945SOL  HW2   2835   0.021   0.190   3.083  0.9926 -0.1699 -0.8097
  946SOL  OW    2836   0.444   1.939   0.797  0.4897 -0.1247  0.4085
  946SOL  HW1   2837   0.497   1.875   0.729 -0.6722 -0.8678 -0.9235
  946SOL  HW2   2838   0.366   1.888   0.832  1.1111  0.2140 -1.4431
  947SOL  OW    2839   1.511   0.062   2.971  0.1503 -0.3891 -0.1221
  947SOL  HW1   2840   1.434   0.123   2.943 -0.2633 -1.0583 -0.6621
  947SOL  HW2   2841   1.476   3.090   3.038 -1.1939 -0.7842  0.6839
  948SOL  OW    2842   1.539   1.761   1.326 -0.1014  0.7647  0.0769
  948SOL  HW1   2843   1.568   1.831   1.261 -0.9584 -0.8098  0.9841
  948SOL  HW2   2844   1.450   1.784   1.372 -3.6693  0.7823  1.4233
  949SOL  OW    2845   0.382   1.232   2.637 -0.3095 -0.0305 -0.6848
  949SOL  HW1   2846   0.331   1.157   2.600  0.4919  0.6628  2.2486
  949SOL  HW2   2847   0.324   1.278   2.708 -2.1380  0.1591 -0.0051
  950SOL  OW    2848   0.014   2.439   1.316  0.6968 -0.4135 -0.1417
  950SOL  HW1   2849   3.054   2.462   1.238 -1.6740  0.1323  0.2473
  950SOL  HW2   2850   3.056   2.391   1.392 -2.3134 -1.7425  1.5646
  951SOL  OW    2851   0.757   1.983   2.433  0.2297  0.6285  0.6887
  951SOL  HW1   2852   0.781   1.900   2.493  0.4927  0.1157 -0.4064
  951SOL  HW2   2853   0.701   1.954   2.355 -1.1661 -1.0371  1.6378
  952SOL  OW    2854   0.596   0.595   0.047 -0.1534 -0.0495  0.1435
  952SOL  HW1   2855   0.614   0.596   0.147  1.5546  0.2415 -1.0390
  952SOL  HW2   2856   0.611   0.509   0.007  0.1794  1.5112 -1.3255
  953SOL  OW    2857   2.275   1.295   2.777  0.0628  0.4808  0.7408
  953SOL  HW1   2858   2.333   1.361   2.818  1.6643 -1.6995 -0.6883
  953SOL  HW2   2859   2.300   1.277   2.679 -0.0906 -0.1619 -0.7744
  954SOL  OW    2860   1.192   2.882   0.722  0.2937  0.1395  0.5582
  954SOL  HW1   2861   1.271   2.941   0.712  0.3456 -0.1772  0.4898
  954SOL  HW2   2862   1.188   2.820   0.642  1.0993  1.7623 -0.6796
  955SOL  OW    2863   0.777   0.825   3.027  0.5269  0.0526 -0.1055
  955SOL  HW1   2864   0.759   0.726   3.016  1.0513 -0.4626  0.7584
  955SOL  HW2   2865   0.825   0.850   0.018  2.2850 -0.0648 -0.9292
  956SOL  OW    2866   2.902   1.469   1.597 -0.4614 -0.0854 -0.7687
  956SOL  HW1   2867   2.880   1.465   1.499  1.1485 -1.4076 -0.1469
  956SOL  HW2   2868   2.962   1.396   1.627  0.2355 -1.8741  1.8718
  957SOL  OW    2869   2.057   1.550   1.754 -0.2551  0.0771 -0.0617
  957SOL  HW1   2870   2.052   1.630   1.691 -1.6270  0.2254  0.7002
  957SOL  HW2   2871   2.145   1.550   1.811 -1.6177  1.2562  2.5921
  958SOL  OW    2872   1.548   0.878   1.124  0.3790  0.4601  0.1587
  958SOL  HW1   2873   1.473   0.858   1.058 -0.3554 -0.3138  0.8343
  958SOL  HW2   2874   1.559   0.804   1.195 -2.4488 -1.9570  0.6675
  959SOL  OW    2875   1.959   1.998   1.726 -0.4564  0.5119  0.0836
  959SOL  HW1   2876   2.022   1.946   1.668 -0.8796 -0.1496 -0.9156
  959SOL  HW2   2877   1.977   1.965   1.823  2.5154 -1.8559  1.9420
  960SOL  OW    2878   0.971   2.098   2.523  0.4240 -0.3076 -0.2067
  960SOL  HW1   2879   1.054   2.042   2.510 -1.8879  0.4830 -1.3870
  960SOL  HW2   2880   0.894   2.057   2.468 -1.9366 -1.2544 -0.1740
  961SOL  OW    2881   2.662   1.177   3.087 -0.2056  0.3027  0.0883
  961SOL  HW1   2882   2.655   1.212   2.993  1.0328 -0.7654  3.1232
  961SOL  HW2   2883   2.635   1.250   0.057  2.8684  0.5201  4.7587
  962SOL  OW    2884   1.260   1.366   0.020  0.0872  0.0376 -0.0692
  962SOL  HW1   2885   1.277   1.308   0.101  0.1020 -0.3234 -0.9449
  962SOL  HW2   2886   1.190   1.436   0.047 -0.6552  0.1478 -0.9221
  963SOL  OW    2887   2.885   1.449   2.772  0.0847  0.6797  0.3612
  963SOL  HW1   2888   2.800   1.395   2.783  4.3543 -1.2142  1.2677
  963SOL  HW2   2889   2.875   1.532   2.714  0.6349  1.8136  1.0416
  964SOL  OW    2890   0.685   2.251   2.005  0.6664  0.1612 -0.2761
  964SOL  HW1   2891   0.722   2.333   2.057  3.4006  0.2502 -1.1786
  964SOL  HW2   2892   0.709   2.159   2.048 -1.4390  0.2639  2.9305
  965SOL  OW    2893   1.235   2.143   1.403 -0.2119  0.3528 -0.2244
  965SOL  HW1   2894   1.168   2.066   1.394 -0.0008 -2.0077  0.2637
  965SOL  HW2   2895   1.243   2.198   1.317  1.5361 -2.0987  0.7343
  966SOL  OW    2896   0.107   1.591   0.029 -0.9470 -0.1325  0.0468
  966SOL  HW1   2897   0.132   1.665   0.093 -1.1800  2.4634  0.1870
  966SOL  HW2   2898   0.019   1.545   0.051  3.3394 -2.2390  1.2673
  967SOL  OW    2899   2.088   2.002   2.390 -0.3042  0.5152 -0.4106
  967SOL  HW1   2900   2.012   1.932   2.378 -0.8176 -3.3239  0.9588
  967SOL  HW2   2901   2.059   2.099   2.385 -0.1412 -1.5239 -0.7441
  968SOL  OW    2902   1.270   0.898   2.902 -0.1696  0.3656 -0.1921
  968SOL  HW1   2903   1.349   0.906   2.834  1.3796  3.7090  1.2553
  968SOL  HW2   2904   1.264   0.985   2.954 -0.1729  0.2890 -0.0309
  969SOL  OW    2905   2.995   1.013   2.705  0.3864  0.2438  0.2407
  969SOL  HW1   2906   2.899   0.987   2.723  0.6631 -1.7384 -1.3584
  969SOL  HW2   2907   3.024   1.104   2.742  0.9905  0.8764  0.0201
  970SOL  OW    2908   2.867   0.317   2.434 -0.1829  0.0362 -0.1661
  970SOL  HW1   2909   2.794   0.375   2.394  1.9255  1.3810  0.0666
  970SOL  HW2   2910   2.835   0.231   2.481 -1.9205 -3.1110 -0.0852
  971SOL  OW    2911   1.518   2.092   0.569 -1.0071 -0.6018  0.2270
  971SOL  HW1   2912   1.553   2.142   0.651  0.9888 -1.1362 -1.6314
  971SOL  HW2   2913   1.416   2.089   0.560  1.9537 -1.3953 -1.9127
  972SOL  OW    2914   0.097   2.061   3.024  0.0558  0.4248 -0.3858
  972SOL  HW1   2915   0.064   2.152   3.012 -0.4648  0.4810  1.2666
  972SOL  HW2   2916   0.058   2.015   0.008  0.4932  0.2512  1.8772
  973SOL  OW    2917   0.845   0.585   2.808 -0.1192 -0.1936 -0.7501
  973SOL  HW1   2918   0.879   0.514   2.745  2.0434  1.1793  0.9440
  973SOL  HW2   2919   0.758   0.632   2.778 -2.3745 -0.5631 -0.2569
  974SOL  OW    2920   2.729   0.525   1.909  0.2229 -0.6757  0.2378
  974SOL  HW1   2921   2.709   0.513   1.810  0.7666  1.7167  1.7952
  974SOL  HW2   2922   2.673   0.603   1.936  2.7275  0.9445  0.8024
  975SOL  OW    2923   0.143   0.044   0.481 -0.3830  0.1953  1.0185
  975SOL  HW1   2924   0.162   3.039   0.505 -0.6343 -0.7640 -2.2761
  975SOL  HW2   2925   0.044   0.059   0.506 -1.7235  0.3213  2.0537
  976SOL  OW    2926   0.866   0.884   1.937 -0.0422 -0.7194 -0.6958
  976SOL  HW1   2927   0.868   0.985   1.959 -0.1883 -2.1276 -0.4989
  976SOL  HW2   2928   0.925   0.855   1.857 -0.6369  0.0730 -1.7078
  977SOL  OW    2929   1.091   1.718   0.760  0.8355  0.3712  0.2256
  977SOL  HW1   2930   1.042   1.700   0.674  3.3418  1.2635 -0.4092
  977SOL  HW2   2931   1.094   1.638   0.822  1.3842 -1.7299  2.2118
  978SOL  OW    2932   0.567   1.025   3.004 -0.7930 -0.0205  0.6164
  978SOL  HW1   2933   0.649   0.963   3.017  1.1021 -0.1073 -1.3225
  978SOL  HW2   2934   0.562   1.035   2.900  2.1516 -1.0577 -2.0373
  979SOL  OW    2935   1.746   0.650   0.369  0.6795  0.2932  0.5561
  979SOL  HW1   2936   1.739   0.751   0.373 -0.3870  0.1005  0.6162
  979SOL  HW2   2937   1.740   0.614   0.466  1.7997  2.8908 -0.4353
  980SOL  OW    2938   0.984   1.875   1.798 -0.2025  0.2552 -0.0004
  980SOL  HW1   2939   1.085   1.888   1.796  2.6544  0.8544  0.2392
  980SOL  HW2   2940   0.951   1.891   1.894  1.9637 -0.9645  1.2981
  981SOL  OW    2941   2.007   1.922   1.971 -0.4675 -0.0341  0.0357
  981SOL  HW1   2942   2.095   1.966   2.010 -1.7054 -0.4169  2.1064
  981SOL  HW2   2943   1.993   1.830   2.014  0.0338 -0.0355  0.7603
  982SOL  OW    2944   2.765   2.002   1.602 -0.8541  0.0511 -0.1037
  982SOL  HW1   2945   2.702   2.058   1.657 -1.3309 -2.0810 -0.3580
  982SOL  HW2   2946   2.836   1.961   1.665 -4.4005  1.6178 -0.5700
  983SOL  OW    2947   1.336   2.748   2.065  0.2618  0.4886 -0.5212
  983SOL  HW1   2948   1.342   2.798   2.153 -0.6531  2.3482 -2.0033
  983SOL  HW2   2949   1.429   2.736   2.023 -1.2864 -1.3421 -2.9958
  984SOL  OW    2950   0.085   0.844   2.747 -0.7679  0.1828 -0.6818
  984SOL  HW1   2951   0.005   0.907   2.745  0.3043 -1.2115  0.9365
  984SOL  HW2   2952   0.156   0.875   2.813  1.0873 -0.4754 -0.0270
  985SOL  OW    2953   1.355   1.449   1.978 -0.9611  0.1885 -0.4581
  985SOL  HW1   2954   1.346   1.387   1.898  0.3568 -0.6855 -0.3555
  985SOL  HW2   2955   1.361   1.546   1.940  3.1927  0.2824  1.2333
  986SOL  OW    2956   2.034   0.131   0.415 -0.1377  0.2261 -0.0460
  986SOL  HW1   2957   2.003   0.142   0.515  0.8861 -0.7580 -0.3651
  986SOL  HW2   2958   2.115   0.068   0.409  1.5424  1.2451 -1.5916
  987SOL  OW    2959   0.107   2.402   2.590 -0.1762  0.4836 -0.5428
  987SOL  HW1   2960   0.061   2.434   2.672  1.6665  0.6537 -0.7280
  987SOL  HW2   2961   0.173   2.327   2.614  1.0313  0.9005 -3.5557
  988SOL  OW    2962   2.706   2.973   1.022 -0.2337 -0.5803 -0.4342
  988SOL  HW1   2963   2.644   3.051   1.056 -0.6307  0.6738 -1.0662
  988SOL  HW2   2964   2.807   2.998   1.024  0.0649 -1.1347  0.8612
  989SOL  OW    2965   2.120   2.624   1.315  0.4246  0.2321 -0.3561
  989SOL  HW1   2966   2.102   2.552   1.248  2.2356 -1.8936  4.0021
  989SOL  HW2   2967   2.219   2.640   1.325  1.0044  1.9897 -0.0265
  990SOL  OW    2968   2.408   0.269   2.979  0.1469 -0.5121 -0.0601
  990SOL  HW1   2969   2.487   0.304   3.036  0.9961  0.5330 -2.0210
  990SOL  HW2   2970   2.320   0.307   3.013  1.1475  2.5861 -0.1272
  991SOL  OW    2971   0.592   1.318   0.572  0.0822  0.0597 -0.5413
  991SOL  HW1   2972   0.548   1.352   0.488  0.3254 -0.3599  0.4155
  991SOL  HW2   2973   0.552   1.230   0.605  2.1178 -0.4588  2.7869
  992SOL  OW    2974   1.542   1.356   1.001 -0.0919  0.0585 -0.2633
  992SOL  HW1   2975   1.521   1.281   1.066 -0.9512  0.3786  2.3284
  992SOL  HW2   2976   1.644   1.361   0.984  0.1772  0.9172 -0.2732
  993SOL  OW    2977   2.671   1.983   1.136  0.1597 -0.1405 -0.3055
  993SOL  HW1   2978   2.568   1.989   1.132 -0.0839  1.9168  1.0230
  993SOL  HW2   2979   2.711   1.935   1.059 -1.0862 -2.0869  1.1565
  994SOL  OW    2980   0.004   2.080   1.362 -1.0562 -0.1988 -0.1803
  994SOL  HW1   2981   0.035   2.101   1.455  0.0964  5.2295  0.8099
  994SOL  HW2   2982   3.004   2.040   1.365 -0.5071 -0.5046 -1.2703
  995SOL  OW    2983   1.936   1.305   0.040 -0.1549  0.2809  0.4869
  995SOL  HW1   2984   2.017   1.269   0.086  1.2881 -0.1939 -1.1050
  995SOL  HW2   2985   1.868   1.342   0.108 -0.7075  0.5684  1.9851
  996SOL  OW    2986   1.940   2.411   0.844 -0.4573  0.1748 -0.1976
  996SOL  HW1   2987   1.843   2.427   0.872  1.1663  0.3650 -3.2075
  996SOL  HW2   2988   1.949   2.338   0.766 -0.1111  1.7004  1.6387
  997SOL  OW    2989   1.376   1.727   1.893 -0.7618  0.6709  0.4586
  997SOL  HW1   2990   1.432   1.773   1.960 -1.4601 -0.9519  0.4605
  997SOL  HW2   2991   1.317   1.795   1.845 -0.0516 -0.7385  0.2708
  998SOL  OW    2992   0.676   2.431   0.503  0.7315 -0.1117  0.4111
  998SOL  HW1   2993   0.766   2.388   0.518 -3.1142  0.6323 -2.0912
  998SOL  HW2   2994   0.694   2.530   0.482 -1.3480  1.3796  0.9235
  999SOL  OW    2995   0.686   0.139   2.889 -0.1785 -0.5013 -0.1709
  999SOL  HW1   2996   0.587   0.138   2.920 -4.1409  1.3961 -3.2723
  999SOL  HW2   2997   0.697   0.135   2.789  2.0508 -0.9179 -0.6300
 1000SOL  OW    2998   0.914   0.069   2.998 -0.4077  0.0258  0.1675
 1000SOL  HW1   2999   0.831   0.095   2.944 -0.7459  3.0937 -1.5968
 1000SOL  HW2   3000   0.908   3.061   3.016 -0.6175 -1.9308 -1.5179
    3.095540047     3.095540047     3.095540047     0.000000000     0.000000000     0.000000000     0.000000000     0.000000000     0.000000000
