1000 SPC/Fw water molecules
 3000
    1SOL     OW    1   0.878   2.156   2.292  0.0790  0.0914  0.3131
    1SOL    HW1    2   0.802   2.100   2.261 -0.1255 -4.3133 -0.2275
    1SOL    HW2    3   0.896   2.232   2.225 -0.4773  0.5706  0.1788
    2SOL     OW    4   1.288   0.516   1.082 -0.7633 -0.2595 -0.2243
    2SOL    HW1    5   1.344   0.448   1.128  3.0375 -1.2451  1.6974
    2SOL    HW2    6   1.334   0.542   0.994  3.3688 -0.6053 -2.9823
    3SOL     OW    7   0.372   0.937   2.673 -0.3929  0.1328  0.4566
    3SOL    HW1    8   0.466   0.936   2.627  1.2475  3.2549 -0.8331
    3SOL    HW2    9   0.347   1.031   2.711  1.0366 -0.6926 -0.4782
    4SOL     OW   10   2.491   1.868   3.084 -0.2168 -0.5056 -0.8543
    4SOL    HW1   11   2.399   1.821   3.083 -3.0986  1.4048  2.2285
    4SOL    HW2   12   2.499   1.931   3.007 -2.6039 -0.6400 -2.2000
    5SOL     OW   13   1.690   0.960   1.361 -0.2771 -0.7335  0.5813
    5SOL    HW1   14   1.643   0.874   1.344 -1.0908 -1.0312 -2.8558
    5SOL    HW2   15   1.625   1.039   1.372 -0.2782 -2.2943 -0.3561
    6SOL     OW   16   2.285   0.961   0.394  0.2273  0.0107 -0.2098
    6SOL    HW1   17   2.383   0.935   0.414 -1.3799  1.1823  4.0360
    6SOL    HW2   18   2.235   0.887   0.345 -1.1142 -0.7376 -0.3795
    7SOL     OW   19   0.107   1.593   1.726 -0.2240  0.7965  0.6063
    7SOL    HW1   20   0.058   1.606   1.637  1.9719 -3.0493 -2.3194
    7SOL    HW2   21   0.055   1.532   1.789 -2.6617 -1.1584  1.2247
    8SOL     OW   22   2.870   2.382   2.748 -0.3217  0.2421 -0.0518
    8SOL    HW1   23   2.805   2.462   2.755 -0.8499  1.5062 -1.7442
    8SOL    HW2   24   2.958   2.424   2.774 -0.3379  1.2172 -1.0782
    9SOL     OW   25   1.972   1.717   0.805  0.3633  0.0437 -0.1254
    9SOL    HW1   26   1.942   1.758   0.720 -2.1847  2.9854 -0.7474
    9SOL    HW2   27   1.994   1.622   0.783 -0.7494 -1.9146 -0.8137
   10SOL     OW   28   0.287   2.044   0.617 -0.0270  0.3205 -0.1700
   10SOL    HW1   29   0.231   1.975   0.665  0.4603 -1.3664  2.8897
   10SOL    HW2   30   0.306   2.116   0.685 -2.0323 -0.4195  2.9826
   11SOL     OW   31   2.703   1.289   0.776 -0.3641 -0.2496  0.0878
   11SOL    HW1   32   2.652   1.232   0.707 -2.5946  0.2602 -2.6360
   11SOL    HW2   33   2.781   1.330   0.730 -0.1054  0.7368  0.7922
   12SOL     OW   34   0.098   2.194   0.534  0.0974 -0.3502 -0.5484
   12SOL    HW1   35   0.168   2.128   0.565  0.8209  1.8660 -0.3596
   12SOL    HW2   36   0.011   2.145   0.543  0.3274 -0.5180  0.0195
   13SOL     OW   37   0.413   0.628   1.807 -0.2041 -0.2418  0.0481
   13SOL    HW1   38   0.425   0.573   1.718  0.8275  0.8525  0.6017
   13SOL    HW2   39   0.322   0.673   1.810  1.4195 -0.1651 -0.1088
   14SOL     OW   40   1.953   2.654   1.967  0.3156  0.0457  0.4442
   14SOL    HW1   41   1.928   2.596   1.889  1.4072  2.6656 -0.1576
   14SOL    HW2   42   1.879   2.715   1.995 -0.1129 -0.7086  0.7567
   15SOL     OW   43   0.188   2.402   2.805  0.3407 -0.1080 -0.0485
   15SOL    HW1   44   0.130   2.449   2.730  1.3712 -0.6157 -0.6745
   15SOL    HW2   45   0.128   2.367   2.880 -0.4217 -0.6063 -1.5731
   16SOL     OW   46   1.425   1.027   2.725 -0.1261  0.1426  0.8112
   16SOL    HW1   47   1.486   1.091   2.676  1.1061 -0.5103  2.1035
   16SOL    HW2   48   1.403   1.047   2.822 -0.0466 -0.1960 -0.5838
   17SOL     OW   49   0.128   0.440   1.566 -0.0652 -0.1816 -0.0864
   17SOL    HW1   50   0.094   0.394   1.480  0.1952  0.2482  1.0539
   17SOL    HW2   51   0.045   0.454   1.623  2.2451 -0.6913 -1.1169
   18SOL     OW   52   2.144   1.718   2.492 -0.0522  0.1534 -0.1869
   18SOL    HW1   53   2.057   1.710   2.443 -0.0950  0.8044 -3.8456
   18SOL    HW2   54   2.172   1.814   2.482 -0.3470  0.0941 -0.3230
   19SOL     OW   55   3.040   1.626   1.484 -0.0016 -0.7746 -0.5219
   19SOL    HW1   56   3.027   1.575   1.396  1.8586 -0.7619 -0.2282
   19SOL    HW2   57   2.941   1.647   1.510  1.4696  1.5613 -1.6204
   20SOL     OW   58   1.002   2.429   0.034  0.2090  0.0042 -0.3145
   20SOL    HW1   59   0.935   2.507   0.026  0.7938 -1.1799 -1.4993
   20SOL    HW2   60   1.078   2.440  -0.036 -0.3485 -0.0809 -0.1829
   21SOL     OW   61   1.047   1.498   1.641 -0.1403 -0.0123 -0.1136
   21SOL    HW1   62   1.037   1.415   1.698 -1.5629  0.4981 -0.1134
   21SOL    HW2   63   0.959   1.537   1.620  2.8706 -2.0036  0.0127
   22SOL     OW   64   0.706   2.652   1.607  0.6789  0.1361 -0.7808
   22SOL    HW1   65   0.766   2.698   1.673  1.9867  0.3183 -0.1968
   22SOL    HW2   66   0.711   2.553   1.615  3.1765  0.6229  1.5512
   23SOL     OW   67   1.980   1.808   3.021 -0.0373  0.4811  0.2110
   23SOL    HW1   68   1.967   1.892   3.079  0.7412  1.5335  0.1081
   23SOL    HW2   69   1.942   1.823   2.929  1.1398  0.1300  0.7103
   24SOL     OW   70   2.228   1.053   1.558 -0.7978  0.4070 -0.0043
   24SOL    HW1   71   2.149   1.111   1.535 -1.4530 -0.8967  0.7622
   24SOL    HW2   72   2.281   1.095   1.636  0.5246 -1.1205  0.2646
   25SOL     OW   73   0.861   1.452   1.363  0.1489  0.3215  0.2637
   25SOL    HW1   74   0.767   1.463   1.321 -0.3965  1.8201 -2.0600
   25SOL    HW2   75   0.870   1.512   1.447  0.7839  0.3863  0.0359
   26SOL     OW   76   0.873   0.251   2.733  0.4324 -0.4256 -0.5779
   26SOL    HW1   77   0.852   0.348   2.732 -0.0112  1.8098 -2.4805
   26SOL    HW2   78   0.932   0.231   2.813  0.9764  0.9375  1.0884
   27SOL     OW   79   0.396   0.478   0.547 -0.0817  0.3199 -0.4507
   27SOL    HW1   80   0.476   0.524   0.581  1.6676 -2.8407  1.7408
   27SOL    HW2   81   0.309   0.505   0.595  0.5580  1.2441 -2.9076
   28SOL     OW   82   2.222   2.230   1.353  0.7790  0.3472 -0.0046
   28SOL    HW1   83   2.179   2.190   1.270 -0.5213 -2.6270  2.0482
   28SOL    HW2   84   2.162   2.221   1.438  2.6650  0.4517  0.7911
   29SOL     OW   85   1.882   1.792   2.768  0.2257 -0.1005  0.0113
   29SOL    HW1   86   1.800   1.808   2.824  3.9667 -0.3870  1.3190
   29SOL    HW2   87   1.885   1.850   2.686  0.1696 -1.9822 -1.2027
   30SOL     OW   88   0.220   2.403   0.854 -0.2125 -0.1219  0.1150
   30SOL    HW1   89   0.159   2.324   0.878 -1.7062 -0.2772  2.1292
   30SOL    HW2   90   0.191   2.446   0.769  3.5466 -1.3354 -1.3864
   31SOL     OW   91   2.985   2.217   2.570  0.6176 -0.2360  0.0952
   31SOL    HW1   92   2.934   2.179   2.490 -0.5977  1.2090  0.7961
   31SOL    HW2   93   2.930   2.276   2.626  0.2929  1.0211 -0.7369
   32SOL     OW   94   1.243   0.201   1.407 -0.4287  0.1771 -0.2874
   32SOL    HW1   95   1.249   0.095   1.414  0.6481  1.3170  0.2696
   32SOL    HW2   96   1.225   0.238   1.502 -0.2180 -1.0604  0.3856
   33SOL     OW   97   2.880   0.920   2.616  0.5129  0.8398 -0.5174
   33SOL    HW1   98   2.954   0.967   2.670  0.8018  0.4981 -0.4004
   33SOL    HW2   99   2.797   0.975   2.627 -2.5891 -0.8372 -0.3626
   34SOL     OW  100   1.443   0.516   2.624 -0.5589 -0.3551 -0.0480
   34SOL    HW1  101   1.546   0.518   2.601  0.3806  0.0416  0.9504
   34SOL    HW2  102   1.399   0.430   2.590  0.7727  2.5204  2.4020
   35SOL     OW  103   0.001   2.977   1.164 -0.6566 -0.0971 -0.2202
   35SOL    HW1  104  -0.080   3.030   1.135 -0.7828 -0.7293  0.4329
   35SOL    HW2  105   0.052   2.929   1.093  3.0641 -1.1081 -0.9453
   36SOL     OW  106   2.696   2.261   0.341 -0.5642 -0.1479 -0.5839
   36SOL    HW1  107   2.685   2.267   0.442 -0.2185 -0.8564 -0.8447
   36SOL    HW2  108   2.648   2.178   0.300  0.0359 -0.7742 -1.1399
   37SOL     OW  109   1.634   2.502   2.660 -0.3791 -0.2034 -0.1351
   37SOL    HW1  110   1.642   2.597   2.700 -2.2011  0.3346 -3.1365
   37SOL    HW2  111   1.723   2.456   2.637  2.2438 -1.1226 -2.0438
   38SOL     OW  112   0.599   0.014   1.674 -0.0480  0.6334  0.4755
   38SOL    HW1  113   0.580   0.115   1.682  1.1543 -1.5252  0.3156
   38SOL    HW2  114   0.531  -0.020   1.610 -0.3877  0.0571 -1.9411
   39SOL     OW  115   0.793   1.266   1.979 -0.4374 -0.3269  0.0140
   39SOL    HW1  116   0.810   1.364   1.940  2.1488 -0.3527  0.2159
   39SOL    HW2  117   0.885   1.220   1.967 -2.6499 -0.6873 -0.2409
   40SOL     OW  118   2.932   0.759   0.122 -0.0354  0.0415 -0.9561
   40SOL    HW1  119   2.970   0.670   0.088  0.4793  1.0378  0.7564
   40SOL    HW2  120   2.975   0.839   0.080  1.1192  0.0406  0.8711
   41SOL     OW  121   0.112   0.308   2.722 -0.8756 -0.5840 -0.1500
   41SOL    HW1  122   0.191   0.285   2.782 -1.9885 -0.0552  1.8324
   41SOL    HW2  123   0.132   0.286   2.624 -0.6814  0.9577  0.4156
   42SOL     OW  124   2.072   0.830   1.508  0.3423  0.4620 -0.2111
   42SOL    HW1  125   1.999   0.877   1.563  2.4108 -2.3754  2.2471
   42SOL    HW2  126   2.147   0.900   1.495 -2.1143  0.2590 -1.8623
   43SOL     OW  127   1.608   1.302   2.182  0.0328  0.0189  0.5304
   43SOL    HW1  128   1.536   1.365   2.198  1.5736  1.0433  0.6838
   43SOL    HW2  129   1.660   1.318   2.093  0.1285  1.9824  0.8951
   44SOL     OW  130   0.139   1.082   0.623  0.2470 -0.1039 -0.0703
   44SOL    HW1  131   0.064   1.146   0.610  3.0818  1.5452  0.2101
   44SOL    HW2  132   0.104   1.014   0.693  1.2445 -2.1776  1.3218
   45SOL     OW  133   0.971   1.615   2.721  0.6933 -0.2643  0.4692
   45SOL    HW1  134   0.925   1.548   2.664 -1.4362  3.4090 -0.6793
   45SOL    HW2  135   1.062   1.576   2.749  1.7606  0.3709  0.4069
   46SOL     OW  136   0.379   2.828   1.284  0.6318 -0.1899 -0.4385
   46SOL    HW1  137   0.399   2.903   1.352  1.5123 -0.4556 -0.1982
   46SOL    HW2  138   0.465   2.778   1.265 -2.1563  1.4159 -0.0369
   47SOL     OW  139   1.275   1.438   1.496 -0.7955  0.2443 -0.0709
   47SOL    HW1  140   1.240   1.364   1.430 -0.0964 -0.8400 -0.4309
   47SOL    HW2  141   1.194   1.481   1.542 -2.2645 -0.3633  0.9333
   48SOL     OW  142   1.971   0.151   2.410 -0.3389 -0.2224  0.2094
   48SOL    HW1  143   1.913   0.080   2.452 -0.1275  1.7392  2.3026
   48SOL    HW2  144   1.930   0.182   2.322  1.5633 -0.8503  2.1106
   49SOL     OW  145   1.138   1.934   1.463  0.2207 -0.6394 -0.0171
   49SOL    HW1  146   1.212   1.903   1.532 -1.6444 -1.7786  2.1006
   49SOL    HW2  147   1.152   1.881   1.380 -1.7869 -0.9797  1.3098
   50SOL     OW  148   1.258   0.062   0.471  0.5951  0.6373 -0.1366
   50SOL    HW1  149   1.340   0.127   0.478 -1.4936 -2.3195  2.2148
   50SOL    HW2  150   1.257   0.007   0.385  3.2514  0.3545  1.9073
   51SOL     OW  151   1.613   2.362   0.569 -0.1882  0.3424 -0.0433
   51SOL    HW1  152   1.512   2.341   0.574  2.6285  0.7198 -0.5854
   51SOL    HW2  153   1.667   2.273   0.589 -1.6267 -0.9422  0.7057
   52SOL     OW  154   0.283   1.207   3.040  0.1823 -0.5207 -0.0964
   52SOL    HW1  155   0.187   1.166   3.032  1.8846 -0.6419  1.6931
   52SOL    HW2  156   0.336   1.195   2.954  1.5511 -0.8103 -0.2996
   53SOL     OW  157   1.081   0.347   2.466  0.0436  0.1110 -0.1016
   53SOL    HW1  158   1.182   0.337   2.468  3.4100 -0.0569  1.0163
   53SOL    HW2  159   1.054   0.445   2.460  1.9339  2.4957  0.5276
   54SOL     OW  160   1.841   0.923   1.614 -0.2131  0.1340 -0.5414
   54SOL    HW1  161   1.771   0.878   1.670 -0.9956  0.6915 -1.0950
   54SOL    HW2  162   1.800   0.947   1.524 -1.1805 -0.1153  2.9855
   55SOL     OW  163   2.279   0.368   2.924  0.3882 -0.1964  0.4005
   55SOL    HW1  164   2.380   0.357   2.908  2.5206  0.4115 -2.6418
   55SOL    HW2  165   2.224   0.307   2.862 -1.8443 -2.2616  0.2333
   56SOL     OW  166   0.955   1.128   1.573 -0.1452  0.5205  0.1246
   56SOL    HW1  167   1.045   1.111   1.536  2.0045 -0.9227  1.9697
   56SOL    HW2  168   0.906   1.040   1.587  1.8650  0.1779  0.6376
   57SOL     OW  169   2.105   0.894   0.038 -0.5199  0.1319 -0.2281
   57SOL    HW1  170   2.006   0.874   0.024 -0.3055 -0.2128 -1.8890
   57SOL    HW2  171   2.139   0.836   0.114  2.7125 -0.7617  1.6464
   58SOL     OW  172   0.708   2.958   2.240  0.6143  0.2445 -0.0623
   58SOL    HW1  173   0.653   2.914   2.165  0.5244  1.2039  3.2754
   58SOL    HW2  174   0.664   2.927   2.331  1.0336  0.0486  1.2611
   59SOL     OW  175   0.086   3.016   1.749 -0.2120 -0.4067  0.0725
   59SOL    HW1  176   0.003   2.964   1.766  0.7567  0.5466  0.1358
   59SOL    HW2  177   0.138   2.976   1.677 -0.3790  0.5243 -1.4940
   60SOL     OW  178   2.635   2.560   2.441  0.7666  0.1722 -0.4433
   60SOL    HW1  179   2.604   2.478   2.387  2.8445  0.9885  0.6281
   60SOL    HW2  180   2.565   2.637   2.435  1.2789 -1.0495  2.1860
   61SOL     OW  181   2.290   2.013   0.296 -0.3733 -0.1431  0.0218
   61SOL    HW1  182   2.357   2.051   0.223 -2.5354  0.8834 -0.1977
   61SOL    HW2  183   2.300   2.070   0.378  1.2508  0.8469  0.4549
   62SOL     OW  184   1.200   0.178   2.754  0.0588 -0.3642  0.0830
   62SOL    HW1  185   1.129   0.219   2.814 -1.0265  1.3851  1.4325
   62SOL    HW2  186   1.223   0.246   2.681  1.8490  1.3787 -0.7967
   63SOL     OW  187   2.345   0.270   0.519 -0.5928  0.3393 -0.6965
   63SOL    HW1  188   2.428   0.322   0.487  0.8051  1.6865 -0.3824
   63SOL    HW2  189   2.264   0.334   0.505  1.7999  2.4304 -0.5755
   64SOL     OW  190   1.630   1.361   2.600  0.4718 -0.6002  0.6460
   64SOL    HW1  191   1.549   1.367   2.537  2.7242 -2.1578 -0.4575
   64SOL    HW2  192   1.598   1.385   2.694 -0.1607  0.3070  0.7499
   65SOL     OW  193   0.230   1.087   1.759 -0.0609 -0.0030 -0.4280
   65SOL    HW1  194   0.257   1.049   1.846 -0.4839 -0.1158 -0.6131
   65SOL    HW2  195   0.142   1.133   1.767  0.6820 -0.6955  0.6549
   66SOL     OW  196   2.958   0.932   1.474 -0.1952 -1.1062  0.4849
   66SOL    HW1  197   3.013   0.852   1.509  2.0628  1.4789 -0.0555
   66SOL    HW2  198   2.868   0.942   1.533  3.6063  0.0755  0.7475
   67SOL     OW  199   1.818   1.851   1.013  0.4627 -0.3587  0.0402
   67SOL    HW1  200   1.830   1.952   1.016 -1.3605 -0.1938  0.7605
   67SOL    HW2  201   1.871   1.814   0.934 -1.1347 -0.7609  1.7297
   68SOL     OW  202   2.066   2.844   0.500  0.0592 -0.0880  0.3725
   68SOL    HW1  203   2.114   2.861   0.409  1.0963 -0.4779  1.7253
   68SOL    HW2  204   2.005   2.762   0.495 -0.3149 -0.2456 -0.6030
   69SOL     OW  205   2.073   0.817   0.539 -0.6534 -0.1055  0.3497
   69SOL    HW1  206   2.159   0.764   0.531  1.0581  0.3018 -2.9838
   69SOL    HW2  207   2.036   0.827   0.634 -2.7847  0.8072 -0.2654
   70SOL     OW  208   2.626   0.775   1.199  0.3139  0.0672  0.4952
   70SOL    HW1  209   2.697   0.754   1.129  1.1531 -1.2633  1.0718
   70SOL    HW2  210   2.550   0.705   1.193  0.9078  0.0360 -0.5444
   71SOL     OW  211   0.151   2.451   0.604 -0.1866  0.2248 -0.2169
   71SOL    HW1  212   0.130   2.355   0.565  0.0205  1.5628  0.2678
   71SOL    HW2  213   0.167   2.521   0.533 -0.3411  0.4236 -0.9537
   72SOL     OW  214   2.583   1.672   0.444 -0.0315 -0.2043  0.1505
   72SOL    HW1  215   2.495   1.700   0.393  1.7404  1.8611  2.3167
   72SOL    HW2  216   2.645   1.753   0.463  3.7399 -0.3497  2.7119
   73SOL     OW  217   2.985   1.089   0.345  0.0667 -0.5254 -0.0348
   73SOL    HW1  218   2.976   1.188   0.334 -0.7814  0.4616  0.1372
   73SOL    HW2  219   3.080   1.059   0.311 -1.7109 -0.3262 -1.4182
   74SOL     OW  220   3.020   0.833   2.157 -0.2674  0.1023  0.0359
   74SOL    HW1  221   3.099   0.776   2.198 -2.4033  2.3389 -2.4514
   74SOL    HW2  222   2.976   0.789   2.077  0.7041 -1.0652  1.1685
   75SOL     OW  223   1.171   2.307   1.613 -0.4049  0.2708  0.6773
   75SOL    HW1  224   1.259   2.275   1.665  0.7312 -1.9753 -1.0975
   75SOL    HW2  225   1.183   2.290   1.513  0.3763  3.4420  3.0226
   76SOL     OW  226   1.131   2.185   1.337 -0.2321 -0.2407  0.4573
   76SOL    HW1  227   1.067   2.175   1.256  1.3508  0.0029 -0.0471
   76SOL    HW2  228   1.133   2.101   1.393 -0.8473 -0.9576  1.6628
   77SOL     OW  229   1.763   0.788   0.996 -0.5024  0.2678 -0.4432
   77SOL    HW1  230   1.801   0.882   1.009  0.1516  1.5680 -0.6518
   77SOL    HW2  231   1.673   0.784   1.039  1.2343  0.4394 -0.1200
   78SOL     OW  232   2.132   0.976   1.194  0.0225  0.4666 -0.7960
   78SOL    HW1  233   2.092   0.896   1.149  0.9290 -1.6579 -2.5140
   78SOL    HW2  234   2.217   0.950   1.246 -3.2723  1.7419 -1.3136
   79SOL     OW  235   1.647   2.671   1.752  0.0407  0.4079 -0.5003
   79SOL    HW1  236   1.739   2.635   1.771 -2.0384  1.4895 -0.2312
   79SOL    HW2  237   1.649   2.744   1.680  0.9991  2.5256  6.4607
   80SOL     OW  238   0.306   0.519   2.049  0.5901 -0.1576 -0.0600
   80SOL    HW1  239   0.243   0.544   2.123  4.3803  2.1388 -1.9138
   80SOL    HW2  240   0.310   0.587   1.976 -0.7825  0.6917  2.2437
   81SOL     OW  241   1.461   0.245   0.911  0.0677  0.3029  0.1104
   81SOL    HW1  242   1.520   0.285   0.985 -0.0802  0.2133  0.2215
   81SOL    HW2  243   1.510   0.230   0.819  0.2450  2.9350 -1.3804
   82SOL     OW  244   1.217   0.703   1.891  0.5174  0.5237 -0.0450
   82SOL    HW1  245   1.177   0.736   1.803  1.0065 -4.0785 -0.9986
   82SOL    HW2  246   1.292   0.768   1.917 -0.9655 -1.0780 -0.3852
   83SOL     OW  247   0.165   0.101   1.210 -0.1414 -0.1167 -0.1843
   83SOL    HW1  248   0.168   0.157   1.123  1.5335 -0.9070  1.1274
   83SOL    HW2  249   0.111   0.019   1.193 -2.0709 -0.6577  0.1011
   84SOL     OW  250   2.073   2.073   1.149  0.3157  0.1487  0.6358
   84SOL    HW1  251   1.985   2.112   1.109  0.0030 -0.4287 -1.7937
   84SOL    HW2  252   2.058   2.004   1.224 -0.3552  1.1033  0.9134
   85SOL     OW  253   1.992   2.937   1.603  0.2292 -0.4130  0.1040
   85SOL    HW1  254   1.932   2.920   1.684  0.2377  0.4063  1.1001
   85SOL    HW2  255   1.939   2.987   1.524 -0.5124  0.1986 -1.3727
   86SOL     OW  256   0.786   1.568   1.624 -0.3452 -0.7130  0.3711
   86SOL    HW1  257   0.712   1.502   1.641 -1.2529  0.7549 -1.2721
   86SOL    HW2  258   0.754   1.668   1.614 -1.9187 -0.8775 -0.7141
   87SOL     OW  259   1.362   0.701   0.864  0.7531 -0.5105 -0.4492
   87SOL    HW1  260   1.445   0.649   0.842 -0.0110  0.7027  1.4081
   87SOL    HW2  261   1.379   0.800   0.884 -1.8476  0.4565  0.0604
   88SOL     OW  262   0.834   0.162   1.285 -0.0330 -0.5806 -0.0657
   88SOL    HW1  263   0.793   0.094   1.221  0.6471 -1.3904  1.3108
   88SOL    HW2  264   0.869   0.115   1.365 -0.2366 -0.2206 -2.3502
   89SOL     OW  265   2.751   1.140   2.188  0.3948  0.2236 -0.1656
   89SOL    HW1  266   2.796   1.068   2.243  1.4022 -2.0570 -1.8220
   89SOL    HW2  267   2.653   1.163   2.225  0.2902  0.9045  0.1581
   90SOL     OW  268   2.614   0.087   3.014 -0.5287  0.2601  0.2095
   90SOL    HW1  269   2.591   0.018   2.935  0.2262 -1.4007 -0.5774
   90SOL    HW2  270   2.631   0.183   2.981 -1.3105 -1.0957 -1.5691
   91SOL     OW  271   0.223   0.744   0.852 -0.3650 -0.3038 -0.2203
   91SOL    HW1  272   0.302   0.814   0.854 -2.1267 -0.6102 -2.0311
   91SOL    HW2  273   0.139   0.782   0.809 -0.2121 -1.8089 -2.0056
   92SOL     OW  274   0.473   2.970   1.055 -0.3248 -0.0261  0.7742
   92SOL    HW1  275   0.402   3.017   0.999  2.0380 -2.2124  2.2259
   92SOL    HW2  276   0.429   2.909   1.124 -2.5956  1.5843 -0.3994
   93SOL     OW  277   0.118   1.692   0.364 -0.2920  0.4850 -0.3867
   93SOL    HW1  278   0.135   1.619   0.302 -0.7529  0.5443 -1.3272
   93SOL    HW2  279   0.125   1.778   0.303 -1.4623  0.0910  1.0286
   94SOL     OW  280   2.449   0.517   1.152  0.0873 -0.5504 -0.2647
   94SOL    HW1  281   2.500   0.430   1.143 -0.1382 -1.1081 -0.4432
   94SOL    HW2  282   2.395   0.518   1.240  0.2061  0.3639 -1.9183
   95SOL     OW  283   1.861   0.242   2.170 -0.1347  0.7706  0.0123
   95SOL    HW1  284   1.884   0.319   2.106  0.0096  1.7142 -0.0984
   95SOL    HW2  285   1.762   0.235   2.195  0.7248 -1.6512  1.0154
   96SOL     OW  286   1.712   1.310   1.926  0.2686 -0.2380 -0.1057
   96SOL    HW1  287   1.688   1.376   1.857  0.7038 -0.2409  1.6422
   96SOL    HW2  288   1.776   1.243   1.884  5.1822 -0.3611 -0.0855
   97SOL     OW  289   2.542   2.914   1.067 -0.6587  0.2173  0.5770
   97SOL    HW1  290   2.622   2.956   1.108 -2.5037 -0.6105 -2.1288
   97SOL    HW2  291   2.563   2.818   1.038 -1.6860 -0.7089 -0.8085
   98SOL     OW  292   0.455   2.322   2.348 -0.3781 -0.1437  0.6728
   98SOL    HW1  293   0.448   2.261   2.265  3.4833  2.4423 -1.3341
   98SOL    HW2  294   0.380   2.392   2.356 -1.4091  2.9711  1.5837
   99SOL     OW  295   0.497   0.057   1.990 -0.1822 -0.6075  0.0736
   99SOL    HW1  296   0.415   0.075   1.935 -2.1190  1.1036 -1.0084
   99SOL    HW2  297   0.578   0.110   1.961 -0.2505  0.2811  0.5703
  100SOL     OW  298   2.602   1.671   0.116  0.1088  0.1246  0.3518
  100SOL    HW1  299   2.523   1.659   0.175 -0.6955  0.6059  0.3986
  100SOL    HW2  300   2.589   1.750   0.046 -1.0366  1.7273  0.1132
  101SOL     OW  301   0.631   2.873   2.498  0.1038  0.1876 -0.0397
  101SOL    HW1  302   0.551   2.939   2.489  0.1467  0.0711 -0.8679
  101SOL    HW2  303   0.603   2.784   2.541  0.9261  0.2370  0.1499
  102SOL     OW  304   0.373   0.237   0.429 -0.0358  0.1468 -0.0352
  102SOL    HW1  305   0.402   0.321   0.477  1.1891 -1.5932 -0.3944
  102SOL    HW2  306   0.307   0.255   0.352  3.0118  1.1344  1.2409
  103SOL     OW  307   2.866   1.113   1.952  0.5779  1.0895  0.4692
  103SOL    HW1  308   2.826   1.121   2.048  0.1266 -2.1788  1.6751
  103SOL    HW2  309   2.840   1.022   1.919  2.0628 -0.1860 -2.4053
  104SOL     OW  310   0.281   2.800   1.926 -0.0919 -0.3378 -0.0928
  104SOL    HW1  311   0.318   2.772   1.835  2.1050 -3.4714 -0.3255
  104SOL    HW2  312   0.190   2.765   1.940 -1.1457  1.2243 -2.3495
  105SOL     OW  313   0.803   2.743   1.850 -0.2972  0.3184 -0.2611
  105SOL    HW1  314   0.882   2.782   1.910 -0.6494  0.2752  0.4189
  105SOL    HW2  315   0.728   2.715   1.909  2.0754 -1.6400  2.8069
  106SOL     OW  316   2.559   2.507   0.865  0.1958 -0.1293 -0.2303
  106SOL    HW1  317   2.571   2.418   0.916  0.3602  2.9697 -1.4178
  106SOL    HW2  318   2.590   2.492   0.769  1.1420 -0.6592  1.0382
  107SOL     OW  319   1.043   0.392   0.760  0.1780 -0.1299 -0.8202
  107SOL    HW1  320   1.104   0.342   0.826  0.3092  1.7450 -1.6692
  107SOL    HW2  321   0.947   0.384   0.788 -1.7742  1.4651 -2.9781
  108SOL     OW  322   2.228   1.269   2.047 -0.2135  0.1125 -0.1181
  108SOL    HW1  323   2.218   1.259   2.152  1.4293 -1.6053 -0.6766
  108SOL    HW2  324   2.228   1.370   2.025  1.0997  1.9165  1.7078
  109SOL     OW  325   2.288   2.689   3.028  0.4617  0.1894 -0.8168
  109SOL    HW1  326   2.321   2.678   3.125  0.7703  2.4740  2.6920
  109SOL    HW2  327   2.294   2.787   2.995  1.0644 -1.4416  3.5530
  110SOL     OW  328   2.712   1.585   0.877 -0.4062  0.8421 -0.0166
  110SOL    HW1  329   2.645   1.524   0.923 -1.1805 -0.5454  2.2345
  110SOL    HW2  330   2.687   1.683   0.880 -0.0812  0.1774 -2.3110
  111SOL     OW  331   2.914   1.539   2.968  0.6387 -0.4838  0.2694
  111SOL    HW1  332   3.015   1.544   2.947  1.3501  1.2848  2.6230
  111SOL    HW2  333   2.894   1.582   3.059 -0.6402  0.9357 -0.5939
  112SOL     OW  334   2.941   0.063   0.826 -0.3719  0.1616 -0.1998
  112SOL    HW1  335   2.894   0.137   0.771  1.1572 -1.1479  0.7253
  112SOL    HW2  336   2.918   0.063   0.927  0.8024  0.1650  0.3131
  113SOL     OW  337   2.720   2.682   0.360 -0.2139  0.5471  0.0760
  113SOL    HW1  338   2.625   2.674   0.395  1.6537  0.8486 -0.2671
  113SOL    HW2  339   2.772   2.711   0.444  1.5860  0.6025 -1.2095
  114SOL     OW  340   0.841   0.787   1.850 -0.3329  0.2548 -0.1734
  114SOL    HW1  341   0.908   0.770   1.924  1.0199 -1.6773  0.5479
  114SOL    HW2  342   0.754   0.745   1.892 -0.7809  1.5831 -1.3348
  115SOL     OW  343   0.108   0.853   2.544 -0.1960  0.5503 -0.6655
  115SOL    HW1  344   0.209   0.865   2.526  1.8437  2.2393  0.1616
  115SOL    HW2  345   0.086   0.755   2.571 -1.0595 -0.1417  0.7505
  116SOL     OW  346   2.256   1.202   1.120 -0.1293  0.1031  0.2408
  116SOL    HW1  347   2.223   1.104   1.131  1.3979 -1.9764  1.4986
  116SOL    HW2  348   2.273   1.219   1.019 -2.6392  0.2152 -1.1021
  117SOL     OW  349   2.211   0.730   0.220 -0.8658 -0.0401  0.2361
  117SOL    HW1  350   2.293   0.710   0.160  2.6947 -0.0238  1.2938
  117SOL    HW2  351   2.168   0.643   0.251  0.6589 -3.4687 -3.0010
  118SOL     OW  352   2.560   1.738   1.644  0.2497 -0.1006  0.5715
  118SOL    HW1  353   2.554   1.676   1.724  0.4050  1.0873 -0.0809
  118SOL    HW2  354   2.481   1.732   1.582 -0.1924  2.5547 -2.4905
  119SOL     OW  355   0.678   1.993   2.222 -0.0739  0.3845  0.3728
  119SOL    HW1  356   0.740   1.963   2.146 -0.8858 -2.7229 -1.1302
  119SOL    HW2  357   0.602   1.928   2.233  1.1956  1.5617 -1.2427
  120SOL     OW  358   0.051   1.816   2.952  0.7561 -0.3544 -0.2085
  120SOL    HW1  359   0.138   1.872   2.954 -0.1948  1.7335  1.7986
  120SOL    HW2  360   0.067   1.722   2.925  0.3277  1.6776  1.5567
  121SOL     OW  361   1.878   1.348   2.253 -0.4159  0.2485 -0.1941
  121SOL    HW1  362   1.779   1.327   2.250 -0.9635 -0.4933 -0.7537
  121SOL    HW2  363   1.934   1.264   2.227 -3.4414 -0.7274 -0.8654
  122SOL     OW  364   2.882   1.489   0.656 -0.0237 -0.2486  0.2784
  122SOL    HW1  365   2.818   1.542   0.720 -1.4033  1.9974  0.6964
  122SOL    HW2  366   2.918   1.553   0.587 -1.3679  1.7155 -0.4823
  123SOL     OW  367   1.001   3.052   0.185 -0.8251 -0.2857  0.2799
  123SOL    HW1  368   1.083   3.067   0.125 -1.5221  2.1467 -0.4995
  123SOL    HW2  369   0.925   3.115   0.167  3.6331  1.8253 -1.2523
  124SOL     OW  370   1.825   0.656   2.814  0.2004  0.0733  0.3201
  124SOL    HW1  371   1.773   0.602   2.748  0.2377 -0.8186 -2.4634
  124SOL    HW2  372   1.788   0.745   2.843 -0.5662  1.1201 -1.2030
  125SOL     OW  373   1.552   0.116   1.584  0.0085 -0.0424  0.2949
  125SOL    HW1  374   1.553   0.216   1.602 -1.5879 -1.3026 -0.0352
  125SOL    HW2  375   1.569   0.071   1.671 -4.4485 -0.3935  1.1884
  126SOL     OW  376   2.130   0.001   2.867 -0.3196  0.5563 -0.3827
  126SOL    HW1  377   2.099   0.100   2.865  1.7828 -0.3361  1.5096
  126SOL    HW2  378   2.093  -0.044   2.784 -1.1491 -2.4376 -0.5789
  127SOL     OW  379   2.595   2.062   0.154  0.9406 -0.1816  0.0044
  127SOL    HW1  380   2.556   1.983   0.104  0.5088 -1.1637 -2.0411
  127SOL    HW2  381   2.543   2.146   0.141 -2.2876  1.9581 -1.1076
  128SOL     OW  382   1.873   1.427   2.512  0.2010  0.0176  0.1071
  128SOL    HW1  383   1.782   1.411   2.545 -4.5593  0.1930  1.7484
  128SOL    HW2  384   1.879   1.415   2.412 -0.6167  1.0466  3.3272
  129SOL     OW  385   2.004   0.915   0.773  0.1362  0.1622 -0.0496
  129SOL    HW1  386   1.971   0.985   0.709  0.9811  0.1334 -2.0061
  129SOL    HW2  387   1.974   0.933   0.867  1.7879 -0.1802  0.3834
  130SOL     OW  388   1.583   0.783   0.070 -0.1414  0.1399 -0.3948
  130SOL    HW1  389   1.573   0.868   0.021 -2.1429  1.1251  0.2328
  130SOL    HW2  390   1.510   0.714   0.046  1.6765  0.7365  3.1775
  131SOL     OW  391   3.024   0.395   0.522  0.5270 -0.4877 -0.3739
  131SOL    HW1  392   3.029   0.488   0.565 -1.9811  2.0290 -2.0388
  131SOL    HW2  393   3.028   0.397   0.420 -0.3611  0.5464 -1.8484
  132SOL     OW  394   0.856   1.027   0.682 -0.0196 -0.0887  0.7273
  132SOL    HW1  395   0.895   1.101   0.744  0.9435  0.3388  0.7717
  132SOL    HW2  396   0.904   1.021   0.589  1.5246 -0.5657 -0.2532
  133SOL     OW  397   1.228   1.615   0.851 -0.4988  0.3023 -0.3119
  133SOL    HW1  398   1.172   1.554   0.793  0.5282 -0.0235 -1.5814
  133SOL    HW2  399   1.273   1.570   0.928  3.0982  0.5605  0.2836
  134SOL     OW  400   0.168   1.484   0.184 -0.2592 -0.3091  0.2370
  134SOL    HW1  401   0.204   1.402   0.235 -1.7851  0.8069 -0.3792
  134SOL    HW2  402   0.205   1.484   0.088 -0.3267 -0.3121 -1.0631
  135SOL     OW  403   1.002   0.597   1.286  0.1404 -0.2613 -0.1808
  135SOL    HW1  404   1.036   0.633   1.195 -0.4047  1.1046  0.5455
  135SOL    HW2  405   0.917   0.539   1.273 -2.5302 -0.6788  0.6247
  136SOL     OW  406   0.972   2.869   2.023 -0.6213 -0.1353 -0.0079
  136SOL    HW1  407   1.035   2.851   2.106 -0.0935 -1.7759 -0.9600
  136SOL    HW2  408   0.921   2.961   2.026 -2.7404 -2.4111  0.1105
  137SOL     OW  409   2.853   2.523   1.406  0.6290  0.3496 -0.1918
  137SOL    HW1  410   2.776   2.465   1.374  0.1040 -1.6633 -0.7637
  137SOL    HW2  411   2.866   2.596   1.336  1.9010  0.0029  1.0038
  138SOL     OW  412   1.429   0.875   1.989 -0.0693  0.2253  0.3049
  138SOL    HW1  413   1.520   0.845   2.029 -1.3848  0.1065  1.6252
  138SOL    HW2  414   1.439   0.968   1.947  0.2779 -0.4534  1.3650
  139SOL     OW  415   2.420   0.023   0.088  0.1087 -0.0403 -0.1949
  139SOL    HW1  416   2.431   0.029   0.192  0.5490 -0.8040  2.3347
  139SOL    HW2  417   2.508   0.036   0.040  1.1499 -3.9739  1.5777
  140SOL     OW  418   2.691   2.401   0.084 -0.3205 -0.2130  0.5908
  140SOL    HW1  419   2.697   2.388   0.185 -1.8678  1.3436  0.3610
  140SOL    HW2  420   2.605   2.367   0.044  0.3786 -0.6364  0.8679
  141SOL     OW  421   1.444   1.468   2.423 -0.0088 -0.0269  0.2103
  141SOL    HW1  422   1.502   1.549   2.438 -3.4363  3.9855 -1.2267
  141SOL    HW2  423   1.408   1.463   2.325  2.1742 -0.3666 -2.7977
  142SOL     OW  424   2.255   1.978   2.432  0.0839  0.2640 -0.0432
  142SOL    HW1  425   2.230   2.077   2.452 -0.5675  1.3548  0.3751
  142SOL    HW2  426   2.230   1.969   2.333 -1.4816 -0.1855  0.3961
  143SOL     OW  427   0.223   2.512   0.230 -0.5411 -0.0828  0.4748
  143SOL    HW1  428   0.247   2.416   0.207 -2.6637 -0.3126  0.3869
  143SOL    HW2  429   0.281   2.580   0.175  0.5701  1.8602  0.4425
  144SOL     OW  430   1.136   2.625   0.251 -0.6889  0.4093  0.1841
  144SOL    HW1  431   1.154   2.706   0.306 -0.5980  0.3741 -0.1598
  144SOL    HW2  432   1.058   2.573   0.290 -0.4682 -1.3762 -2.6477
  145SOL     OW  433   2.042   2.013   0.405  0.4589 -0.0932 -0.6054
  145SOL    HW1  434   2.126   2.002   0.351 -0.9818  0.5734 -2.9037
  145SOL    HW2  435   2.059   2.081   0.478  1.3854  4.7543 -0.1778
  146SOL     OW  436   2.762   1.661   2.780  0.1651  0.2628 -0.1672
  146SOL    HW1  437   2.805   1.627   2.869  0.4659 -0.5838  0.4614
  146SOL    HW2  438   2.805   1.744   2.741 -1.8562 -0.4804 -1.3200
  147SOL     OW  439   0.685   1.038   2.288 -0.6373  0.3811 -0.2813
  147SOL    HW1  440   0.664   1.128   2.250  1.2866 -2.2221  1.0896
  147SOL    HW2  441   0.779   1.012   2.263 -2.2944 -0.3163  1.2254
  148SOL     OW  442   1.126   2.039   0.169  0.1161 -0.0162  0.2383
  148SOL    HW1  443   1.123   1.981   0.256  0.5644 -2.3438  0.2125
  148SOL    HW2  444   1.084   2.133   0.186 -2.1399  0.3813  2.9200
  149SOL     OW  445   0.872   1.579   0.615  0.2465  0.5153  0.9348
  149SOL    HW1  446   0.785   1.531   0.630  0.5426  0.5502  3.1364
  149SOL    HW2  447   0.946   1.544   0.674  0.5267  0.1643  1.2458
  150SOL     OW  448   0.441   1.636   1.265 -0.1037 -0.6795  0.7569
  150SOL    HW1  449   0.452   1.683   1.347 -1.1545 -1.8755  0.4294
  150SOL    HW2  450   0.354   1.583   1.263  0.3124 -1.2833 -2.0533
  151SOL     OW  451   2.590   0.362   0.402 -0.2043 -0.8121  0.1368
  151SOL    HW1  452   2.664   0.424   0.420 -0.2297  1.6073  0.8077
  151SOL    HW2  453   2.558   0.377   0.306 -1.8972 -1.5122  0.7122
  152SOL     OW  454   2.942   1.899   2.739 -0.1279  0.3214 -0.0337
  152SOL    HW1  455   2.893   1.988   2.758  1.0390 -0.6482 -0.1695
  152SOL    HW2  456   3.026   1.900   2.801 -0.9498  0.5895  1.2887
  153SOL     OW  457   0.559   2.500   1.251  0.2591 -0.2371 -0.1278
  153SOL    HW1  458   0.580   2.582   1.197 -2.3695  1.3826 -0.5924
  153SOL    HW2  459   0.482   2.448   1.211  0.6242  3.1836 -5.3846
  154SOL     OW  460   0.713   2.440   0.980  0.4635  0.1776 -0.4359
  154SOL    HW1  461   0.810   2.454   1.008 -1.9922  0.4351  0.3265
  154SOL    HW2  462   0.674   2.349   1.009 -2.1999 -0.5776 -0.8811
  155SOL     OW  463   2.730   2.275   0.615 -0.5752  0.1168  0.1867
  155SOL    HW1  464   2.694   2.369   0.600  3.0883 -1.5642  0.3789
  155SOL    HW2  465   2.699   2.233   0.703  1.3276  0.2243  0.5281
  156SOL     OW  466   2.546   3.004   0.548 -0.1156  0.6320  0.0974
  156SOL    HW1  467   2.599   3.079   0.508  1.3698  3.1388 -1.6848
  156SOL    HW2  468   2.551   3.001   0.649 -1.1244  3.3943 -1.3434
  157SOL     OW  469   0.560   0.972   1.996  0.0408 -0.1986 -0.1757
  157SOL    HW1  470   0.588   0.999   2.089 -0.9833 -1.5618  0.0807
  157SOL    HW2  471   0.586   0.877   1.966  0.8465 -1.9738  0.5731
  158SOL     OW  472   2.029   0.630   1.341 -0.1697 -0.8226  1.1870
  158SOL    HW1  473   2.009   0.675   1.251  1.2452 -2.1140 -0.0248
  158SOL    HW2  474   2.036   0.706   1.413 -0.7249 -0.9503  0.7887
  159SOL     OW  475   1.279   1.372   2.623 -0.3194  0.0259 -0.3037
  159SOL    HW1  476   1.231   1.287   2.590 -2.8568  0.2282  1.1256
  159SOL    HW2  477   1.334   1.419   2.549  0.9161  0.6056 -0.0008
  160SOL     OW  478   0.629   0.690   1.954  0.0724 -0.4274 -0.2143
  160SOL    HW1  479   0.606   0.641   2.039  2.5823 -0.6087 -0.9369
  160SOL    HW2  480   0.562   0.671   1.880  1.6824  2.8646  3.1775
  161SOL     OW  481   2.991   2.023   0.798  0.2625  0.2230 -0.0316
  161SOL    HW1  482   2.937   2.031   0.712 -1.0658  1.4087 -0.1868
  161SOL    HW2  483   2.935   1.977   0.867  0.3838  0.2895 -2.9435
  162SOL     OW  484   1.937   1.548   1.509 -0.0077  0.0987  0.2347
  162SOL    HW1  485   1.920   1.559   1.609  0.9826  1.6187  1.7293
  162SOL    HW2  486   1.856   1.570   1.454 -0.5788 -0.3606 -1.6587
  163SOL     OW  487   2.573   3.047   2.763  0.3832  0.6759  0.3047
  163SOL    HW1  488   2.634   3.035   2.680  2.2639  2.1303 -0.2964
  163SOL    HW2  489   2.499   3.121   2.755  1.1943  2.4732 -0.9418
  164SOL     OW  490   2.076   0.922   2.857  0.5665  0.5645  0.7184
  164SOL    HW1  491   2.066   0.834   2.810  0.0393 -0.9466  0.2081
  164SOL    HW2  492   2.082   0.908   2.955  0.1555  1.3639  1.4172
  165SOL     OW  493   2.478   1.026   0.866  0.0759  0.6853 -0.6295
  165SOL    HW1  494   2.526   0.967   0.798 -1.6954 -2.1615 -2.4076
  165SOL    HW2  495   2.541   1.065   0.933 -4.4875  0.0602  0.6368
  166SOL     OW  496   2.259   2.002   0.973  0.5054  0.1364 -0.5657
  166SOL    HW1  497   2.249   1.898   0.979 -0.0533  1.1254  2.0404
  166SOL    HW2  498   2.184   2.041   1.025  1.6816  0.5487  0.8542
  167SOL     OW  499   3.067   2.435   2.438  0.0489  0.1516  0.6929
  167SOL    HW1  500   2.980   2.469   2.393  1.2356 -0.3604 -1.0794
  167SOL    HW2  501   3.049   2.349   2.496  2.0099 -0.0666 -2.3893
  168SOL     OW  502   2.574   1.243   2.543 -0.0772  0.8847  0.5701
  168SOL    HW1  503   2.559   1.224   2.441 -1.4921  1.1151 -0.1839
  168SOL    HW2  504   2.497   1.301   2.575 -0.0693 -0.2964 -1.8681
  169SOL     OW  505   2.879   1.636   0.156  0.2648  0.1891 -0.2015
  169SOL    HW1  506   2.777   1.641   0.143 -0.9363  0.0130 -2.1462
  169SOL    HW2  507   2.919   1.728   0.147 -1.1570 -0.1665 -0.2317
  170SOL     OW  508   0.002   1.079   2.661 -0.2055 -0.4714 -0.3741
  170SOL    HW1  509   0.060   0.999   2.627 -2.5736 -1.6471  1.0908
  170SOL    HW2  510  -0.019   1.150   2.592 -1.7947 -0.2065  1.1733
  171SOL     OW  511   2.361   2.734   0.173  0.2441 -0.2613  0.0486
  171SOL    HW1  512   2.445   2.780   0.140 -0.4958  2.5783 -1.3900
  171SOL    HW2  513   2.290   2.798   0.209  1.1811 -2.1851  0.5250
  172SOL     OW  514   0.997   0.693   2.051  0.3246  0.2316 -0.3531
  172SOL    HW1  515   1.080   0.676   1.997  2.0138  2.2473  0.1178
  172SOL    HW2  516   0.974   0.606   2.096  0.4213  1.3270  0.4425
  173SOL     OW  517   0.378   0.022   0.837 -0.4611  0.3673 -0.8519
  173SOL    HW1  518   0.426   0.105   0.803  2.2948  1.7775  1.7606
  173SOL    HW2  519   0.350  -0.035   0.757 -0.7459  0.1786 -0.7361
  174SOL     OW  520   2.612   2.180   0.842  0.1754  0.0656 -0.2075
  174SOL    HW1  521   2.656   2.172   0.935  0.6486 -0.0429  0.6025
  174SOL    HW2  522   2.511   2.197   0.849  1.0956 -0.8860 -1.2949
  175SOL     OW  523   0.991   1.790   0.942  0.2195 -0.2574  1.0143
  175SOL    HW1  524   1.030   1.700   0.976  0.9723  2.2347 -0.7746
  175SOL    HW2  525   1.065   1.858   0.929 -1.9758 -0.1303  0.3260
  176SOL     OW  526   0.486   2.448   1.502 -0.1863 -0.6108  0.6059
  176SOL    HW1  527   0.521   2.468   1.413  0.0243  1.0687 -0.5745
  176SOL    HW2  528   0.560   2.413   1.563 -0.4150  0.1174  0.2003
  177SOL     OW  529   0.225   1.743   0.954 -0.1845 -0.3968 -0.1202
  177SOL    HW1  530   0.165   1.666   0.985 -3.8857 -0.2622  2.8692
  177SOL    HW2  531   0.235   1.804   1.034 -0.6136 -2.7197 -1.4407
  178SOL     OW  532   0.611   1.453   1.146 -0.5995 -0.1741  0.3421
  178SOL    HW1  533   0.551   1.517   1.192  0.8695  0.8260  0.4041
  178SOL    HW2  534   0.567   1.361   1.149  0.4527 -0.0840  1.0927
  179SOL     OW  535   0.689   0.498   0.393 -0.9208  0.0106 -0.1862
  179SOL    HW1  536   0.749   0.417   0.393 -3.2481  0.8614 -1.6998
  179SOL    HW2  537   0.728   0.574   0.338 -0.9513 -1.7051  1.5453
  180SOL     OW  538   0.856   3.007   1.722  0.2877  0.0662  0.2278
  180SOL    HW1  539   0.768   3.044   1.685 -1.9472 -0.4640 -0.8336
  180SOL    HW2  540   0.844   2.916   1.765  0.4598 -0.1658  0.4566
  181SOL     OW  541   0.371   1.522   1.659 -0.4772  0.2349 -0.1159
  181SOL    HW1  542   0.269   1.539   1.662 -1.9705 -2.2978 -0.7751
  181SOL    HW2  543   0.426   1.584   1.601 -3.2461 -1.5088 -2.2256
  182SOL     OW  544   2.429   2.145   0.506  0.4464 -0.1180 -0.2283
  182SOL    HW1  545   2.428   2.092   0.587  3.5057 -1.0601  0.8104
  182SOL    HW2  546   2.454   2.243   0.525  1.8910 -1.4730 -0.8531
  183SOL     OW  547   1.983   0.003   2.111 -0.8632  0.1255 -0.6650
  183SOL    HW1  548   1.932  -0.080   2.126  1.3961 -1.8566 -0.7882
  183SOL    HW2  549   1.928   0.088   2.130  2.0231 -0.4549 -1.8920
  184SOL     OW  550   1.273   0.716   0.519  0.0348  0.8079 -0.6322
  184SOL    HW1  551   1.221   0.737   0.603  1.9005  1.0454 -1.4907
  184SOL    HW2  552   1.304   0.801   0.466  2.1593  0.7059 -0.2021
  185SOL     OW  553   1.467   0.513   0.581 -0.2991 -0.6241  0.2283
  185SOL    HW1  554   1.410   0.594   0.572  1.3918  3.8544 -0.4510
  185SOL    HW2  555   1.513   0.517   0.671  0.1611  0.8533 -0.1904
  186SOL     OW  556   0.490   0.247   0.745 -0.2942  0.7265 -1.0478
  186SOL    HW1  557   0.530   0.315   0.814  0.0587  1.4356 -1.1581
  186SOL    HW2  558   0.433   0.288   0.673 -2.3453  0.7271  0.0069
  187SOL     OW  559   0.835   1.529   1.918  0.2989  0.1375 -0.4783
  187SOL    HW1  560   0.806   1.573   1.829 -3.1169  1.7229 -0.0761
  187SOL    HW2  561   0.783   1.573   1.999  1.9655  3.5789  2.0018
  188SOL     OW  562   0.106   1.860   1.768  0.4695  0.4456 -0.3101
  188SOL    HW1  563   0.116   1.756   1.777  4.1499  0.8105  1.4759
  188SOL    HW2  564   0.093   1.886   1.667  0.7264 -1.7610  4.6131
  189SOL     OW  565   1.775   0.713   0.721  0.9258  0.9653 -0.0012
  189SOL    HW1  566   1.747   0.785   0.654  1.4554 -0.0409  1.5469
  189SOL    HW2  567   1.771   0.743   0.821  0.6924  0.5274  1.9068
  190SOL     OW  568   1.233   2.851   2.921 -0.2747  0.0124  0.2056
  190SOL    HW1  569   1.189   2.792   2.853 -0.5210  1.5358 -0.0742
  190SOL    HW2  570   1.238   2.800   3.012  1.4235 -0.2841  1.0169
  191SOL     OW  571   0.011   0.722   1.545  0.4875 -0.0647 -0.3410
  191SOL    HW1  572   0.080   0.706   1.477  1.4352 -0.5978  2.6039
  191SOL    HW2  573  -0.026   0.630   1.578 -1.9997  1.7779 -2.7144
  192SOL     OW  574   1.370   2.811   0.802 -0.7194  0.0358  0.8712
  192SOL    HW1  575   1.431   2.892   0.815  0.7210 -1.6612  0.5479
  192SOL    HW2  576   1.284   2.825   0.860 -0.0555 -2.2874  1.1586
  193SOL     OW  577   1.577   0.173   0.683  0.0837  0.1354 -0.4275
  193SOL    HW1  578   1.524   0.196   0.596 -1.8780 -3.5272  1.1669
  193SOL    HW2  579   1.677   0.181   0.653 -1.0930 -2.8740 -1.6579
  194SOL     OW  580   1.645   2.289   1.016  0.1615  0.6189  0.5044
  194SOL    HW1  581   1.555   2.255   0.990 -0.8878 -0.0458 -1.1265
  194SOL    HW2  582   1.654   2.307   1.117  0.6764  1.1984 -0.2329
  195SOL     OW  583   2.585   0.847   0.685  0.2965 -0.1090  0.5589
  195SOL    HW1  584   2.564   0.747   0.697 -0.3736 -1.7303 -1.7015
  195SOL    HW2  585   2.571   0.872   0.589  0.6698 -0.1989 -2.2638
  196SOL     OW  586   0.572   1.536   2.656 -0.1531  0.1491  0.3244
  196SOL    HW1  587   0.538   1.551   2.560  0.1178  4.0402  1.0736
  196SOL    HW2  588   0.548   1.616   2.715  0.0352  1.3150  3.1576
  197SOL     OW  589   2.473   0.475   2.566 -0.4477  0.1421 -0.4274
  197SOL    HW1  590   2.564   0.499   2.522  0.2401 -2.9447 -0.2341
  197SOL    HW2  591   2.460   0.542   2.644  0.4626  0.1312 -0.4397
  198SOL     OW  592   1.712   0.948   0.578 -0.1905 -0.2372 -0.2908
  198SOL    HW1  593   1.796   1.007   0.567 -0.7077  0.0672 -2.4626
  198SOL    HW2  594   1.678   0.909   0.489 -3.7290 -1.5744  0.1193
  199SOL     OW  595   0.323   1.235   1.535 -0.4598  0.1596  0.0743
  199SOL    HW1  596   0.404   1.295   1.555  0.8684 -2.4235  0.5812
  199SOL    HW2  597   0.294   1.177   1.619  1.8905 -0.4753 -3.8884
  200SOL     OW  598   1.474   2.681   1.961 -0.2461 -0.1928  0.0102
  200SOL    HW1  599   1.377   2.668   1.931  0.0878 -1.2547 -2.2725
  200SOL    HW2  600   1.535   2.684   1.881  2.0679  2.3469  1.8628
  201SOL     OW  601   1.904   3.076   1.376 -0.1958  0.1262 -0.4416
  201SOL    HW1  602   1.809   3.044   1.385 -1.4479 -0.6136 -0.7192
  201SOL    HW2  603   1.949   3.032   1.297 -2.4471 -2.1615  1.6742
  202SOL     OW  604   0.257   0.191   3.087  0.0316  0.0609  0.1102
  202SOL    HW1  605   0.290   0.104   3.126  0.0848  2.5458  1.7069
  202SOL    HW2  606   0.299   0.210   2.992  2.1593 -0.7362 -0.8786
  203SOL     OW  607   0.740   1.520   0.177 -0.3274  0.5190 -0.6111
  203SOL    HW1  608   0.797   1.561   0.254 -1.9606  1.9452  1.5898
  203SOL    HW2  609   0.673   1.452   0.215  0.3087 -2.8816  1.2759
  204SOL     OW  610   3.003   1.211   1.548 -0.2832 -0.1766  0.2778
  204SOL    HW1  611   2.921   1.265   1.523  1.9493  1.2032 -1.1673
  204SOL    HW2  612   3.015   1.123   1.499 -0.1768 -0.5616 -3.7883
  205SOL     OW  613   0.381   0.392   1.078 -0.4592  0.0173 -0.0935
  205SOL    HW1  614   0.425   0.372   1.166  1.8083  1.1951 -1.7956
  205SOL    HW2  615   0.331   0.313   1.040 -0.7951  4.5522  2.3493
  206SOL     OW  616   0.448   2.014   0.404 -0.4971 -0.8073  0.4247
  206SOL    HW1  617   0.495   2.102   0.389  1.5499 -0.3778 -1.8257
  206SOL    HW2  618   0.388   2.020   0.486 -2.2088  0.4935 -0.7059
  207SOL     OW  619   1.642   2.584   2.140 -0.5530  0.1242 -0.0766
  207SOL    HW1  620   1.605   2.610   2.232  0.9985  3.1114  2.5310
  207SOL    HW2  621   1.577   2.615   2.068 -0.6405 -4.4346 -1.5538
  208SOL     OW  622   1.603   3.047   1.376  0.6213  1.1127  0.4036
  208SOL    HW1  623   1.566   3.091   1.295 -1.7139 -1.1937  1.3128
  208SOL    HW2  624   1.580   3.104   1.458 -1.2718 -1.3272 -0.1277
  209SOL     OW  625   1.789   0.560   1.739  0.3551 -0.2220 -0.1213
  209SOL    HW1  626   1.735   0.647   1.756  0.9322  0.1952 -0.2255
  209SOL    HW2  627   1.885   0.578   1.719  1.0228  1.5984 -2.0942
  210SOL     OW  628   1.536   3.029   0.825 -0.0558  0.6478 -0.1145
  210SOL    HW1  629   1.500   3.121   0.803  0.7659 -1.9680  0.9362
  210SOL    HW2  630   1.615   3.035   0.894  1.4429 -1.3005 -0.3822
  211SOL     OW  631   0.611   0.155   2.486  0.0955  0.0388  0.4201
  211SOL    HW1  632   0.700   0.117   2.516  1.5816 -0.1379  0.1720
  211SOL    HW2  633   0.538   0.096   2.531 -0.8332  1.4959  3.3685
  212SOL     OW  634   0.338   1.338   0.957  0.1192  0.2044  0.6858
  212SOL    HW1  635   0.409   1.407   0.927  1.2758 -1.7224 -1.2299
  212SOL    HW2  636   0.256   1.343   0.896 -0.4725 -3.7121  1.9348
  213SOL     OW  637   0.194   0.043   0.506  0.3927  0.0191  0.3063
  213SOL    HW1  638   0.235   0.139   0.492 -0.9962  1.6097 -2.3567
  213SOL    HW2  639   0.259  -0.036   0.508 -1.3435  1.2666  0.0488
  214SOL     OW  640   2.504   1.885   2.457  0.3016 -0.1038  0.2545
  214SOL    HW1  641   2.512   1.833   2.543  3.0073  1.9856  0.2887
  214SOL    HW2  642   2.406   1.911   2.449  2.0203  0.3721  3.0196
  215SOL     OW  643   2.851   0.789   0.796 -0.4393 -0.2695 -0.1107
  215SOL    HW1  644   2.764   0.798   0.746  0.4366  0.5126  1.0346
  215SOL    HW2  645   2.840   0.789   0.900 -0.5182  0.4346 -3.2064
  216SOL     OW  646   2.653   2.790   2.825  0.9070 -0.2376  0.0475
  216SOL    HW1  647   2.608   2.881   2.796 -0.1282  0.7879  0.5061
  216SOL    HW2  648   2.715   2.808   2.905 -3.0808  0.4628 -0.0507
  217SOL     OW  649   2.572   1.701   2.046  0.3115  0.2888  0.3822
  217SOL    HW1  650   2.547   1.631   1.977  0.2892 -0.4647 -1.5156
  217SOL    HW2  651   2.586   1.656   2.137 -2.7623 -2.3851  1.2452
  218SOL     OW  652   0.644   2.454   2.466 -0.1180 -0.4330 -0.1484
  218SOL    HW1  653   0.585   2.401   2.400  0.5696  0.4341 -1.7411
  218SOL    HW2  654   0.716   2.396   2.504 -0.7219 -0.3557 -2.4292
  219SOL     OW  655   2.923   2.552   0.006 -0.5496 -0.5881 -0.3505
  219SOL    HW1  656   2.838   2.496   0.016 -2.2869  1.4551 -0.6463
  219SOL    HW2  657   2.951   2.590   0.095 -1.2785 -1.9622  1.4351
  220SOL     OW  658   1.666   3.042   3.033  0.2458  0.1135  0.1650
  220SOL    HW1  659   1.695   3.096   3.115  0.5712 -0.6974 -0.5150
  220SOL    HW2  660   1.747   2.988   2.995  1.2049  1.9861 -1.3286
  221SOL     OW  661   1.566   1.175   0.128  0.1438  0.2667  0.1247
  221SOL    HW1  662   1.549   1.275   0.116  0.3205  1.6556 -1.9758
  221SOL    HW2  663   1.662   1.150   0.151  1.5433 -0.6817  2.1334
  222SOL     OW  664   0.907   0.539   2.671  0.4805  1.1805 -0.0032
  222SOL    HW1  665   0.994   0.526   2.716  0.7483  0.5903 -1.5156
  222SOL    HW2  666   0.914   0.578   2.574  2.6276  1.2563  1.6072
  223SOL     OW  667   2.577   0.869   2.399  0.0016 -0.0311  0.1867
  223SOL    HW1  668   2.542   0.798   2.334  2.0962  2.1406 -1.9706
  223SOL    HW2  669   2.675   0.892   2.368  0.9072 -0.4112 -2.5817
  224SOL     OW  670   0.650   0.452   3.017  0.1054  0.2736  0.1496
  224SOL    HW1  671   0.604   0.501   3.094 -0.2324 -1.2050 -0.4404
  224SOL    HW2  672   0.678   0.514   2.944  0.5683  0.1852  2.5778
  225SOL     OW  673   0.810   1.086   1.100 -0.2606  0.1492 -0.0719
  225SOL    HW1  674   0.842   1.171   1.052 -0.8521  1.4080 -0.7572
  225SOL    HW2  675   0.888   1.028   1.129  0.4999 -1.3847  1.0238
  226SOL     OW  676   1.458   1.506   1.001 -0.1924 -0.4733 -0.1915
  226SOL    HW1  677   1.525   1.455   1.058 -3.4212 -1.4895  0.8951
  226SOL    HW2  678   1.469   1.487   0.899 -0.7053 -0.4242  3.4148
  227SOL     OW  679   0.793   1.550   0.976 -0.3610 -0.2303 -0.1556
  227SOL    HW1  680   0.757   1.630   0.931 -0.5111  3.8042  0.0100
  227SOL    HW2  681   0.720   1.511   1.038 -0.8446  1.2045 -1.0140
  228SOL     OW  682   1.339   2.323   0.541 -0.2944  0.4295 -0.0213
  228SOL    HW1  683   1.286   2.371   0.614 -0.8061  2.7172  3.5030
  228SOL    HW2  684   1.331   2.369   0.453 -0.6421 -0.2671 -1.2832
  229SOL     OW  685   2.757   0.505   2.834 -0.3072  0.1274 -0.1169
  229SOL    HW1  686   2.797   0.567   2.766  1.0151 -0.5139  0.5425
  229SOL    HW2  687   2.828   0.443   2.869 -3.2402  4.0214 -1.6397
  230SOL     OW  688   0.153   1.427   0.771  0.6155  0.5840 -0.0654
  230SOL    HW1  689   0.115   1.351   0.712  0.8995  1.1685  0.1368
  230SOL    HW2  690   0.192   1.496   0.706  0.0873 -1.1423  1.1787
  231SOL     OW  691   1.491   1.479   0.737  0.9868 -0.3030 -0.0838
  231SOL    HW1  692   1.585   1.446   0.727  0.3564 -0.4705  0.9825
  231SOL    HW2  693   1.421   1.412   0.697  0.2951 -2.4854  1.6260
  232SOL     OW  694   1.420   1.638   1.407  0.3884 -0.1300 -0.2673
  232SOL    HW1  695   1.376   1.555   1.444 -0.6413 -1.3375 -0.2255
  232SOL    HW2  696   1.409   1.715   1.474  0.3803 -2.7641 -0.3348
  233SOL     OW  697   0.157   0.968   1.073 -0.1934 -0.0937  0.0458
  233SOL    HW1  698   0.186   0.880   1.025 -0.6579  4.2419  1.2914
  233SOL    HW2  699   0.244   1.023   1.093  2.7772 -2.1063 -0.5859
  234SOL     OW  700   0.802   0.508   2.221  0.3887 -0.3599  0.2940
  234SOL    HW1  701   0.706   0.484   2.190 -0.0928  0.1903 -4.2343
  234SOL    HW2  702   0.839   0.420   2.260 -0.8658 -0.8325  1.7174
  235SOL     OW  703   2.576   1.176   1.669  0.7240  0.2696 -0.1112
  235SOL    HW1  704   2.588   1.181   1.570  0.2762  1.4707  2.2207
  235SOL    HW2  705   2.636   1.242   1.720  2.0231  0.8688  0.5882
  236SOL     OW  706   1.074   2.744   2.682 -0.4934 -0.1911 -0.1066
  236SOL    HW1  707   0.997   2.802   2.660  1.3083 -0.7145 -1.5842
  236SOL    HW2  708   1.080   2.663   2.620 -1.1936  1.0414  0.8157
  237SOL     OW  709   0.085   1.546   2.913 -0.3256 -1.2149  0.0855
  237SOL    HW1  710   0.098   1.511   2.821  0.3708  0.6459 -0.8245
  237SOL    HW2  711   0.161   1.514   2.977  0.2565 -2.8841 -2.7874
  238SOL     OW  712   1.512   1.122   1.851  0.8825  0.1151 -1.0023
  238SOL    HW1  713   1.586   1.178   1.892 -2.0887 -3.5478 -1.9058
  238SOL    HW2  714   1.445   1.173   1.799  1.4050  0.0990  0.0899
  239SOL     OW  715   1.370   1.780   0.277 -0.8464  0.1211 -0.7729
  239SOL    HW1  716   1.430   1.749   0.355 -1.3926  1.6224  1.2307
  239SOL    HW2  717   1.286   1.827   0.305  0.9527 -2.9475  0.2649
  240SOL     OW  718   0.205   2.627   1.219 -0.1802  0.1316 -0.5252
  240SOL    HW1  719   0.252   2.716   1.228  0.6669 -0.3696  2.4831
  240SOL    HW2  720   0.131   2.635   1.152 -0.4075 -1.2258  0.8544
  241SOL     OW  721   2.620   0.689   2.968  0.3157 -0.0862 -0.2524
  241SOL    HW1  722   2.682   0.620   2.929 -0.5154 -1.9162  2.2398
  241SOL    HW2  723   2.663   0.783   2.961  1.7976  0.8883 -1.1711
  242SOL     OW  724   1.512   2.345   1.393  0.5959  0.6172  0.8327
  242SOL    HW1  725   1.503   2.293   1.481 -3.7814  1.7716  0.2986
  242SOL    HW2  726   1.442   2.316   1.327 -0.5905 -1.0357 -1.3985
  243SOL     OW  727   2.025   2.523   2.195 -0.5688  0.3252  0.2228
  243SOL    HW1  728   2.016   2.588   2.271  0.6250 -2.0694 -1.3555
  243SOL    HW2  729   1.995   2.563   2.105 -3.1203  2.4487  0.7041
  244SOL     OW  730   1.971   0.705   2.027  0.0650  0.1853  0.2921
  244SOL    HW1  731   2.009   0.704   1.933 -1.4148 -0.6807 -1.8773
  244SOL    HW2  732   1.888   0.768   2.033 -0.8271  0.1026  1.2120
  245SOL     OW  733   1.811   1.618   0.311  0.2230 -0.2181 -0.0117
  245SOL    HW1  734   1.831   1.606   0.213 -0.3028 -2.5757  0.8262
  245SOL    HW2  735   1.849   1.707   0.351  2.6228 -0.9244 -2.5165
  246SOL     OW  736   1.045   2.280   0.256 -0.4755 -0.0751 -0.2370
  246SOL    HW1  737   1.029   2.337   0.174  0.4955 -1.5038  0.0953
  246SOL    HW2  738   1.139   2.310   0.290  0.0948 -3.3831 -3.1112
  247SOL     OW  739   1.612   3.061   2.105 -0.2858 -0.0345 -0.3311
  247SOL    HW1  740   1.612   3.161   2.141  1.2859  0.0254  2.1898
  247SOL    HW2  741   1.520   3.024   2.118 -2.3732  0.5284 -2.0051
  248SOL     OW  742   0.255   2.585   1.475 -0.2643 -0.0914  0.3475
  248SOL    HW1  743   0.340   2.532   1.472 -2.7712  1.6134 -0.8140
  248SOL    HW2  744   0.225   2.595   1.378  1.4643 -1.3918  3.3317
  249SOL     OW  745   0.294   2.621   2.941 -0.2284 -0.2066  0.1286
  249SOL    HW1  746   0.263   2.540   2.889 -0.6251  0.3065 -0.2392
  249SOL    HW2  747   0.372   2.604   2.996 -0.6681  2.5583 -0.9682
  250SOL     OW  748   2.180   0.208   1.138 -0.0111 -0.1479  0.1027
  250SOL    HW1  749   2.201   0.258   1.054 -1.4741 -3.7674  3.2367
  250SOL    HW2  750   2.089   0.237   1.180 -1.8249 -2.0508  1.8358
  251SOL     OW  751   1.478   1.018   3.026 -0.6250  0.1492  0.0419
  251SOL    HW1  752   1.519   1.087   3.093  0.5652 -0.3287 -0.5768
  251SOL    HW2  753   1.380   1.033   2.999 -1.4242  1.4884 -0.4952
  252SOL     OW  754   2.267   1.638   2.720 -0.2205  0.5061 -0.3437
  252SOL    HW1  755   2.180   1.608   2.759 -0.5739 -1.3337  0.5307
  252SOL    HW2  756   2.245   1.703   2.646 -1.0051 -1.1000  0.6724
  253SOL     OW  757   0.119   2.198   0.254  0.1259 -0.3436 -0.3589
  253SOL    HW1  758   0.018   2.221   0.231  0.5239  1.8140  2.6134
  253SOL    HW2  759   0.125   2.192   0.353 -2.2452  1.1549 -0.2892
  254SOL     OW  760   1.872   0.516   0.576  0.0642  0.0226  0.1363
  254SOL    HW1  761   1.859   0.615   0.603 -2.8112  2.5361 -0.1724
  254SOL    HW2  762   1.811   0.494   0.497 -0.1309  0.6179  1.3934
  255SOL     OW  763   0.935   2.684   1.028  0.6394 -0.1677 -1.0052
  255SOL    HW1  764   0.898   2.732   1.111 -0.1340 -2.8039  0.0749
  255SOL    HW2  765   0.967   2.589   1.052  1.6229  1.4481  2.4575
  256SOL     OW  766   2.418   2.822   1.700 -0.4975 -0.1494 -0.4778
  256SOL    HW1  767   2.489   2.810   1.624 -3.5956  0.7338 -0.5506
  256SOL    HW2  768   2.363   2.733   1.708 -0.0642 -0.4032 -0.1464
  257SOL     OW  769   2.637   2.811   0.146  0.0074  0.3669  0.1236
  257SOL    HW1  770   2.709   2.814   0.074 -0.3932  1.0656 -0.0262
  257SOL    HW2  771   2.668   2.743   0.221 -0.9065 -1.6174 -0.3859
  258SOL     OW  772   1.219   1.368   1.084  0.3092 -0.0107  0.2362
  258SOL    HW1  773   1.310   1.404   1.056  1.3501 -0.9619  0.3547
  258SOL    HW2  774   1.151   1.444   1.082  1.0843 -4.0149 -2.6825
  259SOL     OW  775   1.294   0.468   2.035  0.6510 -0.1917 -0.4285
  259SOL    HW1  776   1.219   0.400   2.045  2.9308 -0.7698  0.2022
  259SOL    HW2  777   1.265   0.551   1.980 -1.3679  1.9931 -1.2842
  260SOL     OW  778   0.034   0.290   1.373  0.3720 -0.1906  0.0406
  260SOL    HW1  779  -0.008   0.365   1.310 -2.4664 -0.2287 -2.7739
  260SOL    HW2  780   0.073   0.211   1.320  0.8018 -2.6043 -0.9499
  261SOL     OW  781   1.008   0.210   2.961  0.0697  0.0801  0.0544
  261SOL    HW1  782   0.966   0.259   3.042 -1.1558 -2.8051  2.5319
  261SOL    HW2  783   1.041   0.113   2.972  0.0159 -0.9599 -0.7961
  262SOL     OW  784   1.635   2.027   2.735 -0.3856  0.0982  0.2725
  262SOL    HW1  785   1.721   2.068   2.702  2.5758  2.0637  1.0624
  262SOL    HW2  786   1.553   2.087   2.725 -0.2718  1.3919  1.3537
  263SOL     OW  787   0.159   0.553   0.660  0.0740  0.0626 -0.3273
  263SOL    HW1  788   0.187   0.617   0.734  1.9640 -1.0378  0.1667
  263SOL    HW2  789   0.077   0.593   0.614  2.5346 -0.5577 -0.5485
  264SOL     OW  790   2.361   1.740   0.306 -0.3006 -0.3079 -0.1701
  264SOL    HW1  791   2.285   1.691   0.354  0.2855  1.6298  0.6937
  264SOL    HW2  792   2.334   1.839   0.282  0.2538  1.3433  0.7554
  265SOL     OW  793   1.193   1.968   0.869 -0.0154  0.4290  0.2232
  265SOL    HW1  794   1.271   1.984   0.930 -0.1185 -0.5654 -0.1166
  265SOL    HW2  795   1.226   1.927   0.785 -1.7231 -1.3597  0.4964
  266SOL     OW  796   2.580   1.219   1.398  0.0646  0.9163  0.0832
  266SOL    HW1  797   2.489   1.264   1.389  2.8335  2.0844 -3.0382
  266SOL    HW2  798   2.594   1.149   1.329 -2.7159 -1.2063  3.2528
  267SOL     OW  799   0.441   0.935   0.895 -0.2644 -0.1873 -0.0587
  267SOL    HW1  800   0.537   0.901   0.903  0.8831 -2.0958 -0.7270
  267SOL    HW2  801   0.424   1.018   0.956  3.4696 -0.7625  2.3033
  268SOL     OW  802   1.358   0.911   0.343 -0.1100  0.4510  0.0556
  268SOL    HW1  803   1.314   0.876   0.260  0.0200 -1.3738  3.4917
  268SOL    HW2  804   1.458   0.889   0.345 -1.9410 -0.2370 -0.3989
  269SOL     OW  805   0.530   0.986   1.539 -0.1882  0.1479  0.5191
  269SOL    HW1  806   0.497   1.025   1.627  2.1379  0.8296  1.4035
  269SOL    HW2  807   0.589   1.058   1.492 -3.3682  0.4899 -2.0702
  270SOL     OW  808   1.135   1.176   0.818 -0.3398 -0.3086 -0.2873
  270SOL    HW1  809   1.165   1.117   0.898 -2.2178 -0.5926  2.3951
  270SOL    HW2  810   1.184   1.155   0.732 -0.1090 -3.1550  1.3502
  271SOL     OW  811   2.494   0.918   2.656  0.1657 -0.1525 -0.5125
  271SOL    HW1  812   2.552   1.000   2.667 -1.8957  1.4481  3.0136
  271SOL    HW2  813   2.511   0.873   2.562 -1.9451 -1.1164  0.0509
  272SOL     OW  814   0.071   1.856   1.490 -0.3108  0.5746 -0.2119
  272SOL    HW1  815   0.025   1.759   1.489 -0.8616  1.0387 -0.6566
  272SOL    HW2  816   0.033   1.918   1.416  0.8010  0.6573  0.2071
  273SOL     OW  817   0.030   0.010   2.727 -0.7903  0.6620 -0.4156
  273SOL    HW1  818  -0.003  -0.026   2.634 -2.1084 -0.2507  0.0163
  273SOL    HW2  819  -0.036   0.081   2.758 -0.2065  2.7913  1.3898
  274SOL     OW  820   2.204   2.784   2.022  0.2180 -0.5845  0.3177
  274SOL    HW1  821   2.195   2.877   1.976  3.9021 -2.9725  0.8204
  274SOL    HW2  822   2.137   2.717   1.981 -1.3980  0.0864 -0.7585
  275SOL     OW  823   1.327   0.887   2.231 -0.5723  0.2569  0.2132
  275SOL    HW1  824   1.359   0.812   2.288 -1.1463  0.4520 -0.0064
  275SOL    HW2  825   1.355   0.872   2.130  1.9857  0.7115 -0.0647
  276SOL     OW  826   0.297   0.745   2.840  0.8923  0.2278  0.2421
  276SOL    HW1  827   0.310   0.813   2.767 -0.3480 -0.8950 -3.1698
  276SOL    HW2  828   0.358   0.769   2.920  1.3131  1.3044 -0.6082
  277SOL     OW  829   1.846   0.244   0.978  0.2822  0.8554  0.5414
  277SOL    HW1  830   1.808   0.149   0.963  1.0023 -0.3319  0.1861
  277SOL    HW2  831   1.899   0.243   1.062 -0.5946 -1.0489  0.2318
  278SOL     OW  832   1.349   0.275   2.525  0.5888 -0.3841  0.3752
  278SOL    HW1  833   1.404   0.238   2.602 -0.5187 -0.2910  1.4680
  278SOL    HW2  834   1.348   0.208   2.448  3.1015  1.0916  2.2109
  279SOL     OW  835   0.066   2.191   0.883  0.1580  0.2746 -0.4617
  279SOL    HW1  836   0.008   2.114   0.847  1.6718  3.3449  0.4076
  279SOL    HW2  837   0.113   2.169   0.970 -2.5521 -1.1229  0.1071
  280SOL     OW  838   0.685   0.619   2.797  0.0655  0.5993  0.0932
  280SOL    HW1  839   0.690   0.704   2.853  0.6897  0.9418  1.3703
  280SOL    HW2  840   0.768   0.602   2.747  0.3240 -0.7003 -0.1440
  281SOL     OW  841   1.795   3.031   2.519  0.4208  0.3367 -0.2883
  281SOL    HW1  842   1.717   3.072   2.579  2.8432 -1.6760  0.2333
  281SOL    HW2  843   1.773   2.937   2.486 -0.3507 -3.5690 -0.7686
  282SOL     OW  844   2.799   1.360   1.472  0.0185  0.1332  0.6422
  282SOL    HW1  845   2.711   1.315   1.441 -3.4947 -0.9107  0.3466
  282SOL    HW2  846   2.782   1.442   1.536 -0.9233 -0.0235  0.4873
  283SOL     OW  847   2.200   2.225   2.496  0.2913  0.2039  0.4785
  283SOL    HW1  848   2.121   2.246   2.435 -0.1416 -4.0852  1.8112
  283SOL    HW2  849   2.270   2.302   2.494 -1.6486  0.4208  1.0939
  284SOL     OW  850   2.074   0.903   2.429  0.5378  0.2767 -0.3990
  284SOL    HW1  851   1.985   0.855   2.432  2.3018  1.9535 -0.2255
  284SOL    HW2  852   2.128   0.851   2.362 -0.5088 -1.2336 -1.6638
  285SOL     OW  853   0.053   1.524   1.004 -0.1812  0.1503 -0.4031
  285SOL    HW1  854   0.081   1.499   0.908 -2.3175 -0.1797 -2.5610
  285SOL    HW2  855  -0.019   1.467   1.044 -0.3698 -0.2747 -0.2353
  286SOL     OW  856   0.909   2.404   1.840 -0.5573 -1.0209  0.1624
  286SOL    HW1  857   0.952   2.485   1.800 -0.3567 -0.6022 -0.2493
  286SOL    HW2  858   0.928   2.320   1.783 -1.1329 -0.7341 -0.5327
  287SOL     OW  859   1.109   1.839   0.361 -0.0078 -0.2912  0.2161
  287SOL    HW1  860   1.140   1.843   0.460  0.4008  1.7308  0.4124
  287SOL    HW2  861   1.033   1.774   0.341 -0.5287 -2.5098 -0.4638
  288SOL     OW  862   3.058   2.148   2.176  0.4476  0.2317  0.4830
  288SOL    HW1  863   3.061   2.079   2.095  0.6502  0.5784  0.6250
  288SOL    HW2  864   3.146   2.143   2.230  0.7963  2.3389  2.4864
  289SOL     OW  865   2.497   1.561   1.280 -0.2764 -0.1920 -0.0241
  289SOL    HW1  866   2.433   1.485   1.304  0.7342  0.4991  2.5713
  289SOL    HW2  867   2.453   1.651   1.265 -1.8654 -1.4872  0.3909
  290SOL     OW  868   0.760   2.533   2.226 -0.4762 -0.3288 -0.2435
  290SOL    HW1  869   0.716   2.508   2.312  1.9942 -1.7064 -0.3220
  290SOL    HW2  870   0.681   2.563   2.161  0.5485  0.4765  0.0822
  291SOL     OW  871   1.460   2.606   0.928  0.0296 -0.0163 -0.0493
  291SOL    HW1  872   1.415   2.690   0.879  1.5820 -0.8970 -0.6976
  291SOL    HW2  873   1.389   2.544   0.961  0.2558 -1.3709  0.7567
  292SOL     OW  874   0.573   2.650   2.046 -0.0565 -0.0384  0.3010
  292SOL    HW1  875   0.545   2.748   2.042 -0.6563  0.3381  1.2856
  292SOL    HW2  876   0.503   2.591   2.010 -0.5749 -0.1709 -0.2824
  293SOL     OW  877   0.520   2.201   1.837  0.3021 -0.3705  0.0043
  293SOL    HW1  878   0.477   2.185   1.929  3.4778 -0.4242  1.7466
  293SOL    HW2  879   0.602   2.146   1.828 -1.0759 -0.2654  1.1945
  294SOL     OW  880   2.306   0.668   0.623 -0.2418  0.2882  0.1560
  294SOL    HW1  881   2.399   0.631   0.637  0.4922  0.7506 -1.5531
  294SOL    HW2  882   2.289   0.734   0.701 -0.6029 -2.1627 -2.5355
  295SOL     OW  883   1.241   1.147   2.260 -0.4217 -0.6811  0.2558
  295SOL    HW1  884   1.192   1.142   2.349 -2.0968 -1.4155 -2.9462
  295SOL    HW2  885   1.285   1.062   2.233 -0.5305  0.4826  0.1455
  296SOL     OW  886   1.860   1.140   1.781  0.3545 -0.6845 -0.3205
  296SOL    HW1  887   1.858   1.077   1.705  0.0870 -1.5137  0.6838
  296SOL    HW2  888   1.929   1.116   1.854 -3.6696  2.1036 -0.7394
  297SOL     OW  889   3.044   1.289   0.570  0.6827 -0.1053  0.0015
  297SOL    HW1  890   2.995   1.364   0.616 -2.2917 -1.4674 -2.0186
  297SOL    HW2  891   3.027   1.300   0.470  0.3721 -0.3942  1.0472
  298SOL     OW  892   1.675   0.916   2.420 -0.6115 -0.7629 -0.3110
  298SOL    HW1  893   1.693   0.979   2.341 -0.3038  1.0436 -2.4781
  298SOL    HW2  894   1.685   0.960   2.515  2.9999 -0.0487 -1.4824
  299SOL     OW  895   2.504   2.576   2.135 -0.3086  0.1979  0.7023
  299SOL    HW1  896   2.456   2.611   2.215 -1.5835 -1.0351 -2.6754
  299SOL    HW2  897   2.503   2.649   2.067 -0.2522  0.1443  0.4094
  300SOL     OW  898   2.901   0.055   1.775 -0.5821 -0.2918  0.5992
  300SOL    HW1  899   2.915  -0.043   1.794  2.3534 -1.6824  1.5781
  300SOL    HW2  900   2.812   0.070   1.724 -0.8420 -0.4516  1.7320
  301SOL     OW  901   2.180   0.755   2.232  0.0208 -0.6824 -0.2019
  301SOL    HW1  902   2.214   0.670   2.269 -1.9960  0.8105  0.8646
  301SOL    HW2  903   2.104   0.736   2.166  0.9516 -1.2680  1.8197
  302SOL     OW  904   0.079   0.744   2.981 -0.1280 -1.0617 -0.3138
  302SOL    HW1  905  -0.008   0.803   2.976  0.9946 -4.4105  2.8105
  302SOL    HW2  906   0.145   0.753   2.907  2.5026 -0.2853  0.5319
  303SOL     OW  907   0.876   1.901   2.040  0.2319 -0.2383 -0.4850
  303SOL    HW1  908   0.954   1.913   1.974 -1.3198 -2.2351 -1.3286
  303SOL    HW2  909   0.908   1.855   2.122  0.0691 -3.3855  2.3246
  304SOL     OW  910   0.340   0.284   2.847  0.1456 -0.1030  0.0168
  304SOL    HW1  911   0.363   0.373   2.807  0.3193 -0.9959  0.9775
  304SOL    HW2  912   0.424   0.227   2.834  2.5399  2.2048  1.4661
  305SOL     OW  913   1.138   0.551   2.813 -0.0539  0.4544  1.1402
  305SOL    HW1  914   1.115   0.588   2.910 -1.5606 -1.9864  2.5119
  305SOL    HW2  915   1.230   0.589   2.787 -1.1821 -0.9293 -2.2095
  306SOL     OW  916   0.451   0.824   3.047 -0.1016 -0.0214 -0.5848
  306SOL    HW1  917   0.503   0.759   3.110  1.3687 -3.1289 -0.0914
  306SOL    HW2  918   0.369   0.862   3.098 -2.8101  1.1407 -2.3329
  307SOL     OW  919   0.147   0.723   1.306  0.1329 -0.0979  0.3545
  307SOL    HW1  920   0.194   0.674   1.227  0.7175 -0.2148  0.3312
  307SOL    HW2  921   0.189   0.816   1.318 -3.2951  1.4481 -0.0420
  308SOL     OW  922   1.074   0.039   1.850 -0.4389 -0.0860 -0.1565
  308SOL    HW1  923   1.043   0.061   1.947 -1.2263 -2.4165 -0.2451
  308SOL    HW2  924   0.997  -0.008   1.804 -0.1219 -3.4741  1.3845
  309SOL     OW  925   1.868   1.336   0.445 -0.2213  0.3008  0.0499
  309SOL    HW1  926   1.898   1.425   0.412 -0.4403  0.3072 -0.0219
  309SOL    HW2  927   1.889   1.265   0.374 -1.3799  0.8224  1.8819
  310SOL     OW  928   0.947   0.610   2.427  0.1733 -0.2595  0.2344
  310SOL    HW1  929   0.881   0.584   2.350 -1.0172  1.0653  2.3920
  310SOL    HW2  930   1.012   0.685   2.404  0.9970  0.1881 -1.5810
  311SOL     OW  931   2.215   2.792   2.287 -0.5834  0.3648 -0.2532
  311SOL    HW1  932   2.212   2.792   2.184  2.1679 -2.0025 -0.9450
  311SOL    HW2  933   2.127   2.762   2.328  1.7022 -1.3296  2.0499
  312SOL     OW  934   1.653   0.792   1.793 -0.1237 -0.4061 -0.5502
  312SOL    HW1  935   1.560   0.826   1.766 -1.1003 -1.1432 -2.2957
  312SOL    HW2  936   1.676   0.810   1.891  0.3646 -0.9127  1.2468
  313SOL     OW  937   3.041   0.383   0.265  0.2068 -0.7216 -0.2826
  313SOL    HW1  938   2.986   0.300   0.249 -0.0550  0.5500 -3.1556
  313SOL    HW2  939   3.052   0.438   0.179  0.2673 -0.3410  1.1628
  314SOL     OW  940   2.716   1.866   1.426 -0.3598  0.5972  0.5146
  314SOL    HW1  941   2.762   1.825   1.345  2.5731 -0.8778 -0.3723
  314SOL    HW2  942   2.642   1.804   1.464  1.4902  0.2404 -1.4092
  315SOL     OW  943   2.824   0.706   1.053  0.1543 -0.7637  0.0491
  315SOL    HW1  944   2.872   0.620   1.033 -0.1848 -1.7008 -3.0306
  315SOL    HW2  945   2.879   0.766   1.115  0.8870 -3.7926  0.9623
  316SOL     OW  946   0.842   0.749   0.713 -0.3181  0.1453 -0.0957
  316SOL    HW1  947   0.935   0.710   0.721  0.3018  0.0953  1.6360
  316SOL    HW2  948   0.843   0.845   0.681  0.5451  1.1429 -1.4046
  317SOL     OW  949   1.186   0.071   2.136 -0.2812 -0.0644  0.6892
  317SOL    HW1  950   1.122   0.054   2.216  0.7826  1.8033 -1.4498
  317SOL    HW2  951   1.165   0.162   2.096  0.4028 -0.2851 -3.4946
  318SOL     OW  952   0.441   1.898   0.873 -0.2547 -0.6100  0.5908
  318SOL    HW1  953   0.350   1.847   0.865  0.0713  4.3706  1.9937
  318SOL    HW2  954   0.431   1.999   0.862 -0.4984 -0.0906 -0.9209
  319SOL     OW  955   0.805   2.077   2.784 -0.4094  0.0905 -0.1271
  319SOL    HW1  956   0.806   1.976   2.779  0.0672 -1.1295  0.2902
  319SOL    HW2  957   0.765   2.107   2.873 -2.1980  0.5647  0.1562
  320SOL     OW  958   0.117   1.876   0.732  0.5657 -0.2161  0.3075
  320SOL    HW1  959   0.030   1.931   0.750 -1.7562  0.4960 -0.8375
  320SOL    HW2  960   0.132   1.808   0.813 -0.1549 -3.0555 -2.1962
  321SOL     OW  961   0.493   3.041   2.922 -0.0696  0.2734  0.3660
  321SOL    HW1  962   0.413   3.036   2.858  1.4484  1.9566 -3.8010
  321SOL    HW2  963   0.549   3.126   2.905  0.3050 -1.6183 -1.3320
  322SOL     OW  964   2.855   1.611   2.378 -0.4921 -0.2960 -0.0790
  322SOL    HW1  965   2.887   1.700   2.418 -2.5224  0.5536  0.0955
  322SOL    HW2  966   2.821   1.546   2.450 -3.4389 -1.9007  0.3751
  323SOL     OW  967   2.813   0.247   0.653  0.5018  0.1525  0.2275
  323SOL    HW1  968   2.880   0.312   0.614 -0.7741 -3.1324  1.0337
  323SOL    HW2  969   2.762   0.198   0.584 -1.1099  0.4899 -3.1486
  324SOL     OW  970   0.833   2.275   2.549  0.3171 -0.3277 -0.5765
  324SOL    HW1  971   0.842   2.201   2.619  0.6216 -3.6471 -1.2050
  324SOL    HW2  972   0.861   2.224   2.462 -0.4544 -1.9313 -0.5411
  325SOL     OW  973   2.453   2.509   2.845 -0.3993  0.2825 -0.1715
  325SOL    HW1  974   2.532   2.526   2.785  1.6078 -0.1875 -1.5020
  325SOL    HW2  975   2.406   2.596   2.876 -1.8044 -0.3601  0.9428
  326SOL     OW  976   3.002   0.855   1.218  0.0815  0.5670 -0.4517
  326SOL    HW1  977   3.092   0.806   1.231 -1.0149 -1.9993 -0.3023
  326SOL    HW2  978   2.974   0.900   1.310 -1.7451 -0.6235 -0.0529
  327SOL     OW  979   2.007   2.958   2.672  0.1673 -0.3718  0.3947
  327SOL    HW1  980   1.932   2.998   2.612  1.4488  1.2690  2.3544
  327SOL    HW2  981   1.974   2.880   2.726 -4.6789  2.7948 -2.1348
  328SOL     OW  982   0.551   0.286   1.688 -0.0478  0.1821  0.5177
  328SOL    HW1  983   0.447   0.275   1.674  0.1241 -2.3799 -1.5042
  328SOL    HW2  984   0.582   0.373   1.638  1.3634  0.6724 -3.1314
  329SOL     OW  985   1.411   0.336   1.251  0.3341  0.5645 -0.0453
  329SOL    HW1  986   1.350   0.296   1.323  2.9458 -1.1028 -0.9412
  329SOL    HW2  987   1.485   0.397   1.285 -3.2541 -0.7338 -2.2558
  330SOL     OW  988   0.365   0.123   1.380 -0.5627 -0.5557 -0.1389
  330SOL    HW1  989   0.287   0.105   1.315 -1.2377 -1.1685 -2.0948
  330SOL    HW2  990   0.417   0.206   1.352  0.4434  1.1913 -3.0427
  331SOL     OW  991   0.488   1.983   2.842 -0.3302 -0.0052  0.7105
  331SOL    HW1  992   0.391   2.002   2.876 -1.4689  1.7738 -0.9825
  331SOL    HW2  993   0.513   2.062   2.785 -2.1791 -0.2792 -0.0563
  332SOL     OW  994   2.593   0.263   1.120  0.4169 -0.0957 -0.0118
  332SOL    HW1  995   2.640   0.274   1.028 -1.1313  0.8307  2.2122
  332SOL    HW2  996   2.660   0.232   1.187 -2.9327 -1.0119 -3.5086
  333SOL     OW  997   2.784   0.264   1.324  0.4571 -0.2034  0.1641
  333SOL    HW1  998   2.802   0.361   1.351 -1.1994 -0.9742  0.4662
  333SOL    HW2  999   2.805   0.207   1.404 -3.6150  3.4739  2.4097
  334SOL     OW 1000   0.620   1.178   0.676 -0.0496 -0.0126  0.1491
  334SOL    HW1 1001   0.537   1.118   0.674 -0.3698  2.8123  1.4827
  334SOL    HW2 1002   0.710   1.128   0.672  0.7963  2.6398  0.7448
  335SOL     OW 1003   2.306   2.848   1.197 -0.1252 -0.5437 -0.1375
  335SOL    HW1 1004   2.319   2.778   1.273  2.6056 -2.0860 -1.4316
  335SOL    HW2 1005   2.389   2.888   1.161  0.9152 -1.8962  0.1552
  336SOL     OW 1006   2.875   0.117   2.058  0.2005  0.2286  0.0937
  336SOL    HW1 1007   2.785   0.163   2.057  0.6579 -0.0644 -1.5233
  336SOL    HW2 1008   2.889   0.071   1.967  1.9313  2.8278  0.4703
  337SOL     OW 1009   0.796   1.523   2.283 -0.2946  0.3864  0.1893
  337SOL    HW1 1010   0.895   1.522   2.264  0.4712  2.4740  2.0326
  337SOL    HW2 1011   0.739   1.557   2.206  2.5043 -0.1570  0.6536
  338SOL     OW 1012   1.732   1.055   2.184 -0.0439 -0.7820  0.2353
  338SOL    HW1 1013   1.823   1.095   2.192 -2.3007 -1.1345  2.7802
  338SOL    HW2 1014   1.664   1.132   2.173 -1.1040  1.1980  0.3744
  339SOL     OW 1015   0.986   1.581   1.137  0.3779  0.2479 -0.2961
  339SOL    HW1 1016   0.907   1.577   1.073 -1.3095  1.5436  0.7944
  339SOL    HW2 1017   0.954   1.525   1.214  1.7796  0.6663 -0.6121
  340SOL     OW 1018   1.649   2.760   2.748 -0.1243 -0.3476 -0.3733
  340SOL    HW1 1019   1.746   2.757   2.780 -1.8049 -0.6147  1.0328
  340SOL    HW2 1020   1.592   2.812   2.821  0.0861  0.7411  0.0233
  341SOL     OW 1021   2.837   2.806   3.033  0.8963 -0.0542 -0.5970
  341SOL    HW1 1022   2.913   2.878   3.029  1.8524  0.3753  2.4797
  341SOL    HW2 1023   2.872   2.710   3.029  1.7883 -0.4393 -3.0628
  342SOL     OW 1024   2.055   1.686   1.966 -0.2130  0.5244  0.6265
  342SOL    HW1 1025   2.052   1.784   1.951  1.6312 -3.1764 -2.0355
  342SOL    HW2 1026   1.980   1.665   2.033  2.6402  1.2510  1.0831
  343SOL     OW 1027   2.157   2.161   1.601 -0.2529  0.0106  0.1146
  343SOL    HW1 1028   2.184   2.230   1.669 -1.3718 -0.9506  0.2762
  343SOL    HW2 1029   2.220   2.079   1.607 -1.1738 -1.6629 -2.8304
  344SOL     OW 1030   1.899   2.233   1.641  0.4082  0.1020 -0.3310
  344SOL    HW1 1031   1.996   2.212   1.610 -0.8332 -1.5528  1.0850
  344SOL    HW2 1032   1.842   2.191   1.567 -1.0571  0.1215  0.9796
  345SOL     OW 1033   2.022   2.649   1.566  0.3777 -0.1268  0.6676
  345SOL    HW1 1034   2.010   2.614   1.472 -0.0187 -0.9739 -0.0480
  345SOL    HW2 1035   2.019   2.750   1.565  2.4218 -0.3227 -1.3765
  346SOL     OW 1036   0.650   2.830   1.420  0.4294 -0.6671  0.0631
  346SOL    HW1 1037   0.584   2.883   1.472 -1.2413 -0.0407  0.9046
  346SOL    HW2 1038   0.683   2.756   1.483 -0.2036  0.1235 -0.7045
  347SOL     OW 1039   1.070   2.568   1.697 -0.2482  0.0684  0.5837
  347SOL    HW1 1040   1.030   2.613   1.614  0.6219  1.2979  1.1625
  347SOL    HW2 1041   1.112   2.483   1.670 -0.2974  1.6057 -1.8062
  348SOL     OW 1042   1.334   1.284   1.721 -0.0909  0.2321 -0.0234
  348SOL    HW1 1043   1.246   1.235   1.741 -0.9231  0.8817  0.0831
  348SOL    HW2 1044   1.333   1.334   1.630  0.2350 -1.7440  1.2448
  349SOL     OW 1045   2.359   1.287   0.882  0.5068  0.0259 -0.1898
  349SOL    HW1 1046   2.419   1.358   0.924 -0.3095 -0.3462  0.2961
  349SOL    HW2 1047   2.405   1.204   0.850  2.7704 -0.4064 -0.5609
  350SOL     OW 1048   2.184   2.856   0.749  0.3321  0.0485 -0.1152
  350SOL    HW1 1049   2.140   2.867   0.658 -1.7469 -0.6711  0.8584
  350SOL    HW2 1050   2.280   2.821   0.738  4.2771 -2.5488  0.6889
  351SOL     OW 1051   0.773   2.202   1.439  0.3772  0.1562  0.6443
  351SOL    HW1 1052   0.685   2.168   1.394  1.8915  1.7468 -1.3569
  351SOL    HW2 1053   0.846   2.133   1.423  0.3468 -1.0543 -1.3119
  352SOL     OW 1054   1.891   1.571   0.038 -0.2915 -0.1696 -0.0241
  352SOL    HW1 1055   1.920   1.650  -0.020 -2.4471  0.0670  0.2472
  352SOL    HW2 1056   1.943   1.493   0.012  1.0333 -0.3527  0.9114
  353SOL     OW 1057   0.394   1.374   2.271 -0.2755  0.2069  0.3077
  353SOL    HW1 1058   0.406   1.455   2.337 -0.4936 -0.8837 -2.2658
  353SOL    HW2 1059   0.481   1.338   2.255 -1.3841 -2.3643 -1.7358
  354SOL     OW 1060   1.093   0.834   2.379  0.4268  0.0705 -0.8362
  354SOL    HW1 1061   1.173   0.857   2.318 -0.4491  1.4831 -1.0935
  354SOL    HW2 1062   1.128   0.853   2.472 -1.2292  2.2701 -1.3417
  355SOL     OW 1063   2.098   2.208   0.104 -0.0151 -0.4246 -0.5226
  355SOL    HW1 1064   2.052   2.117   0.109  1.3968 -3.3999 -0.3648
  355SOL    HW2 1065   2.198   2.198   0.104 -0.3050  2.8182 -0.5026
  356SOL     OW 1066   0.905   0.230   2.268  0.9286  0.0837 -0.1341
  356SOL    HW1 1067   0.978   0.257   2.334 -0.6880 -1.0039 -0.1532
  356SOL    HW2 1068   0.849   0.146   2.296 -0.3800  0.1201  1.2498
  357SOL     OW 1069   0.191   0.273   2.474 -0.6769  0.5079 -0.2566
  357SOL    HW1 1070   0.284   0.313   2.450  1.9226 -3.3483 -3.4017
  357SOL    HW2 1071   0.171   0.202   2.405 -1.0589  0.1872 -0.9540
  358SOL     OW 1072   2.534   1.430   1.048 -0.0412  0.3765 -0.3180
  358SOL    HW1 1073   2.525   1.488   1.131  0.1343 -1.4805  0.6857
  358SOL    HW2 1074   2.611   1.360   1.056  0.2164 -0.7835  3.8944
  359SOL     OW 1075   1.446   2.283   3.022 -0.3601  0.9607  0.0385
  359SOL    HW1 1076   1.394   2.198   3.041 -3.2208  0.3465  2.1740
  359SOL    HW2 1077   1.541   2.266   2.987  0.0720 -0.4064  0.2220
  360SOL     OW 1078   0.494   2.251   0.068 -0.5954  0.5540  0.3677
  360SOL    HW1 1079   0.400   2.231   0.038  0.8173 -0.0015  1.9195
  360SOL    HW2 1080   0.558   2.188   0.028 -1.7460 -1.0196 -0.6698
  361SOL     OW 1081   2.033   1.401   2.969 -0.4256  0.4049 -0.0151
  361SOL    HW1 1082   2.112   1.336   2.959  0.5968  1.5292 -2.4277
  361SOL    HW2 1083   2.042   1.470   2.894 -1.3944 -0.3109 -1.6155
  362SOL     OW 1084   1.460   0.078   1.161  0.2781  0.1858 -0.0940
  362SOL    HW1 1085   1.442   0.170   1.204  0.6648  0.7631 -1.7607
  362SOL    HW2 1086   1.458   0.084   1.057  0.2269  2.3579  0.7210
  363SOL     OW 1087   1.827   1.396   1.254  0.4256 -0.0478 -0.1685
  363SOL    HW1 1088   1.860   1.331   1.326 -1.6636 -0.6215 -3.6794
  363SOL    HW2 1089   1.811   1.490   1.291  0.1358  0.3341  0.8046
  364SOL     OW 1090   0.452   1.595   2.427  0.2969  0.1123 -0.3951
  364SOL    HW1 1091   0.351   1.602   2.444 -0.9880 -0.1422  0.4481
  364SOL    HW2 1092   0.478   1.669   2.359  0.3990  2.3594  2.0477
  365SOL     OW 1093   1.987   0.329   0.753 -0.3111  0.1273 -0.0374
  365SOL    HW1 1094   1.917   0.307   0.830  1.3090 -1.6466  0.4322
  365SOL    HW2 1095   1.953   0.403   0.692 -1.5903  0.3473 -0.9924
  366SOL     OW 1096   1.731   2.764   2.484  0.4491 -0.1398 -0.2416
  366SOL    HW1 1097   1.660   2.737   2.414 -1.7205 -3.1892 -1.1402
  366SOL    HW2 1098   1.689   2.760   2.578 -2.0035  0.4135  0.3988
  367SOL     OW 1099   1.224   0.186   1.682 -0.0730  0.1091  0.2896
  367SOL    HW1 1100   1.311   0.133   1.675 -0.3664 -0.1767  1.5606
  367SOL    HW2 1101   1.157   0.129   1.726 -0.4986 -1.4756  3.2965
  368SOL     OW 1102   3.007   1.303   2.514  0.1334 -0.0659  0.7044
  368SOL    HW1 1103   2.922   1.352   2.545 -0.5052  0.4188  1.4842
  368SOL    HW2 1104   3.002   1.285   2.411  0.4550 -2.0419 -1.1393
  369SOL     OW 1105   0.617   0.653   1.155  0.5148  0.4625 -0.0782
  369SOL    HW1 1106   0.687   0.580   1.177  0.8981 -1.5610  0.5636
  369SOL    HW2 1107   0.645   0.704   1.073 -0.9754 -1.2907 -1.5794
  370SOL     OW 1108   2.229   0.101   2.534  0.4190  0.1444 -0.4379
  370SOL    HW1 1109   2.282   0.049   2.462  0.0130  0.9262 -1.7737
  370SOL    HW2 1110   2.133   0.128   2.505  0.7210 -1.0552  1.7774
  371SOL     OW 1111   0.429   2.996   1.504  0.0677 -0.4506 -0.4119
  371SOL    HW1 1112   0.415   3.092   1.467  0.2799 -1.6571 -1.7580
  371SOL    HW2 1113   0.343   2.947   1.531  0.6988 -0.6703 -2.3458
  372SOL     OW 1114   1.569   2.404   1.878  0.0377  0.0969 -0.1903
  372SOL    HW1 1115   1.626   2.388   1.959  0.9682  0.9870 -1.1377
  372SOL    HW2 1116   1.598   2.487   1.825  3.2822  0.9744 -2.7249
  373SOL     OW 1117   3.042   2.226   1.256 -0.3529 -0.3847 -0.2425
  373SOL    HW1 1118   3.060   2.282   1.333 -1.8137 -0.5897 -2.6048
  373SOL    HW2 1119   2.962   2.260   1.210 -1.4831  1.3819 -0.4194
  374SOL     OW 1120   1.803   1.883   1.287  0.0888  0.3874 -0.0207
  374SOL    HW1 1121   1.897   1.906   1.322 -2.8705 -1.0226 -1.4035
  374SOL    HW2 1122   1.797   1.873   1.183 -0.0664 -0.7083  1.8521
  375SOL     OW 1123   3.092   0.140   3.085  0.1521  0.1497  0.0063
  375SOL    HW1 1124   3.095   0.044   3.067  1.2212 -0.2966  1.4241
  375SOL    HW2 1125   3.191   0.177   3.086 -1.7495  0.2426  0.9711
  376SOL     OW 1126   1.348   2.243   1.188  0.2581  0.9653  0.6736
  376SOL    HW1 1127   1.260   2.220   1.233  2.3004 -1.8922  0.3334
  376SOL    HW2 1128   1.331   2.319   1.119  2.6132  0.2404 -3.5372
  377SOL     OW 1129   0.008   2.573   2.684  0.0564  0.4431 -0.0557
  377SOL    HW1 1130  -0.004   2.554   2.586 -1.8202 -0.2617  0.4453
  377SOL    HW2 1131  -0.040   2.663   2.703  1.7408 -1.3566  1.7889
  378SOL     OW 1132   0.019   1.173   2.903 -0.1292 -0.4039  0.3296
  378SOL    HW1 1133  -0.049   1.248   2.907  0.3151  0.3983 -0.7520
  378SOL    HW2 1134   0.025   1.135   2.807  0.0732 -4.1273 -0.1386
  379SOL     OW 1135   2.717   0.370   2.361  0.1171  0.3529  0.9722
  379SOL    HW1 1136   2.696   0.468   2.386  1.7175 -0.8769  1.6870
  379SOL    HW2 1137   2.809   0.369   2.322  0.4811  0.2255 -0.5370
  380SOL     OW 1138   0.724   1.845   1.581 -0.2843 -0.2616 -0.4973
  380SOL    HW1 1139   0.777   1.883   1.499 -0.6840  1.6947 -1.5519
  380SOL    HW2 1140   0.715   1.910   1.656  1.6532 -2.5269  2.0710
  381SOL     OW 1141   1.957   1.106   0.585 -0.7104  0.3551  0.2732
  381SOL    HW1 1142   2.026   1.071   0.517  1.4767 -0.1359 -2.8870
  381SOL    HW2 1143   1.931   1.201   0.556 -0.1656  1.2831  2.1671
  382SOL     OW 1144   1.811   2.518   0.968 -0.8452  0.3725  0.2978
  382SOL    HW1 1145   1.747   2.578   0.914 -0.7251  2.0896 -0.4359
  382SOL    HW2 1146   1.770   2.422   0.970  1.2615  0.9764 -1.2394
  383SOL     OW 1147   1.022   0.996   0.461 -0.0399  0.2997 -0.0672
  383SOL    HW1 1148   1.031   0.904   0.422  1.1607  0.3988  0.8618
  383SOL    HW2 1149   0.965   1.057   0.401  3.5680 -1.6999  1.7342
  384SOL     OW 1150   0.563   0.416   2.086 -0.4659  0.0588  0.4431
  384SOL    HW1 1151   0.563   0.331   2.143 -1.4105 -0.3584 -1.7620
  384SOL    HW2 1152   0.468   0.450   2.079  0.5175 -1.1568 -1.1553
  385SOL     OW 1153   2.552   2.019   2.862  0.1805  0.0607  0.7124
  385SOL    HW1 1154   2.533   1.939   2.807  1.5335  0.1991 -0.3884
  385SOL    HW2 1155   2.646   2.050   2.858  2.0805  1.4625  1.0250
  386SOL     OW 1156   1.521   0.796   1.146 -0.0183  1.0253 -0.5824
  386SOL    HW1 1157   1.457   0.768   1.218  0.7903 -0.0112 -2.0787
  386SOL    HW2 1158   1.480   0.847   1.067 -1.3616  0.4371 -0.2334
  387SOL     OW 1159   1.699   0.808   2.053  0.2491 -0.1413  0.1103
  387SOL    HW1 1160   1.683   0.889   2.108  1.0097 -1.2600  0.3023
  387SOL    HW2 1161   1.703   0.720   2.109 -0.4898 -2.5550  2.1006
  388SOL     OW 1162   1.499   2.903   2.895 -0.0833  0.3896  0.3364
  388SOL    HW1 1163   1.402   2.880   2.920  2.6895  0.6992 -2.4060
  388SOL    HW2 1164   1.546   2.972   2.956  1.0754 -1.2914  1.1381
  389SOL     OW 1165   2.075   1.072   1.925  0.4800  0.1797  0.6526
  389SOL    HW1 1166   2.152   1.132   1.958 -4.0936 -2.5218  1.4296
  389SOL    HW2 1167   2.112   1.000   1.865  0.9061  0.8329 -0.4856
  390SOL     OW 1168   2.341   2.219   0.853 -0.0172  0.2395  0.2889
  390SOL    HW1 1169   2.320   2.131   0.909  0.0635  1.0484  0.3615
  390SOL    HW2 1170   2.328   2.303   0.910  1.2095 -0.6953  0.8787
  391SOL     OW 1171   2.137   1.633   1.341  0.4183  0.2806 -0.0333
  391SOL    HW1 1172   2.094   1.612   1.248  1.4495  0.2455  2.5128
  391SOL    HW2 1173   2.069   1.605   1.409  0.3381  0.7371  1.4081
  392SOL     OW 1174   2.896   0.082   1.123 -0.0335 -0.1157  0.5927
  392SOL    HW1 1175   2.830   0.006   1.148  1.3025  0.1928 -0.1112
  392SOL    HW2 1176   2.881   0.159   1.185 -1.1257 -2.2182  0.3329
  393SOL     OW 1177   1.155   2.067   2.258 -0.4534  0.5308  0.1501
  393SOL    HW1 1178   1.061   2.100   2.288  2.4132  1.6118  0.7892
  393SOL    HW2 1179   1.223   2.121   2.303  0.3616  1.2864 -0.2748
  394SOL     OW 1180   0.210   2.401   2.062 -0.0832 -0.3109  0.6500
  394SOL    HW1 1181   0.148   2.354   2.001  2.1391 -1.6909 -0.4417
  394SOL    HW2 1182   0.284   2.454   2.008 -0.1790 -1.1028  1.1768
  395SOL     OW 1183   0.861   2.846   1.232  0.0612  0.2700 -0.2786
  395SOL    HW1 1184   0.801   2.860   1.312  1.6684 -3.3085 -1.0661
  395SOL    HW2 1185   0.947   2.905   1.234 -1.5111  1.2375  0.8204
  396SOL     OW 1186   2.927   2.786   2.698 -0.3108 -0.0357 -0.2113
  396SOL    HW1 1187   2.962   2.870   2.647 -1.8770  0.0871 -1.7249
  396SOL    HW2 1188   2.840   2.804   2.747 -0.8226  0.0755 -0.4712
  397SOL     OW 1189   0.125   1.423   2.660 -0.0966  0.1312 -0.2838
  397SOL    HW1 1190   0.041   1.383   2.624 -0.4332  2.6262 -2.2083
  397SOL    HW2 1191   0.160   1.498   2.600 -3.3728  1.3954 -2.6595
  398SOL     OW 1192   0.445   2.279   2.795  0.0866 -0.6693  0.5866
  398SOL    HW1 1193   0.503   2.353   2.830 -0.5853  0.5190  0.3784
  398SOL    HW2 1194   0.342   2.301   2.803 -3.4838  2.4633 -0.5683
  399SOL     OW 1195   1.791   2.458   0.356 -0.0748 -0.1170 -0.2630
  399SOL    HW1 1196   1.756   2.529   0.287 -0.9912  0.4085  1.3823
  399SOL    HW2 1197   1.716   2.424   0.421 -0.9360  0.2688  0.7264
  400SOL     OW 1198   1.268   2.700   0.044  0.3449 -0.2187  0.3231
  400SOL    HW1 1199   1.366   2.710   0.079 -0.0998 -4.2301  0.5770
  400SOL    HW2 1200   1.212   2.658   0.119  1.0620  0.2174 -2.2237
  401SOL     OW 1201   2.728   1.296   2.935 -0.0575 -0.0748  0.2195
  401SOL    HW1 1202   2.689   1.306   3.029  0.0103  2.7867  0.8435
  401SOL    HW2 1203   2.781   1.381   2.916 -0.0066 -1.0447  2.1640
  402SOL     OW 1204   2.734   0.941   2.994 -0.0228  0.0618  0.4086
  402SOL    HW1 1205   2.708   1.009   3.073 -0.3317 -2.3496  0.2619
  402SOL    HW2 1206   2.723   0.994   2.904 -1.4682 -1.3851  1.0322
  403SOL     OW 1207   0.375   0.562   1.521  0.1645 -0.2704 -0.5458
  403SOL    HW1 1208   0.292   0.495   1.532 -0.1732  0.9982  1.3583
  403SOL    HW2 1209   0.346   0.662   1.521 -2.7075  2.1136  0.0429
  404SOL     OW 1210   1.111   3.055   2.411 -0.4343  0.4072  0.4794
  404SOL    HW1 1211   1.024   3.103   2.430 -1.3937  0.1470  1.6883
  404SOL    HW2 1212   1.158   3.020   2.497  0.9411 -0.3094 -2.1793
  405SOL     OW 1213   2.729   3.007   1.472  0.2059  0.3375 -0.1140
  405SOL    HW1 1214   2.647   3.049   1.507  1.0190  0.4553  1.7751
  405SOL    HW2 1215   2.814   3.049   1.504  0.0519 -1.6709 -1.0849
  406SOL     OW 1216   1.252   2.057   2.001  0.0697 -0.3229  0.0760
  406SOL    HW1 1217   1.218   2.054   2.102 -0.7962 -0.7276  1.2772
  406SOL    HW2 1218   1.282   2.150   1.985 -3.3752 -1.5303  0.7076
  407SOL     OW 1219   1.590   0.387   1.689  0.0900  0.2564 -0.4939
  407SOL    HW1 1220   1.663   0.454   1.687  1.6156  0.6846  2.3347
  407SOL    HW2 1221   1.506   0.439   1.662 -0.9918  2.2729 -0.2505
  408SOL     OW 1222   2.099   3.028   1.156 -0.0264  0.4228 -0.0615
  408SOL    HW1 1223   2.181   2.971   1.176 -1.3841  0.0046 -1.0761
  408SOL    HW2 1224   2.133   3.121   1.144 -1.2562 -1.8648  0.4267
  409SOL     OW 1225   2.046   0.115   1.555 -0.0295 -0.4070  0.5771
  409SOL    HW1 1226   2.118   0.051   1.579 -4.0044 -0.3676 -4.4639
  409SOL    HW2 1227   1.989   0.082   1.473  1.2144 -0.6545 -1.0652
  410SOL     OW 1228   1.765   3.074   1.005 -0.5360  0.0112  0.4073
  410SOL    HW1 1229   1.736   3.023   1.089 -1.8146  2.6706 -0.2446
  410SOL    HW2 1230   1.850   3.031   0.962  1.6341 -0.3403 -1.3664
  411SOL     OW 1231   0.191   2.164   1.123  0.1701 -0.1129 -0.2638
  411SOL    HW1 1232   0.222   2.068   1.133  0.3656 -0.5825  2.2865
  411SOL    HW2 1233   0.113   2.180   1.191  2.2693 -2.1996  0.2477
  412SOL     OW 1234   1.799   2.930   1.786 -0.3235  0.0625  0.1387
  412SOL    HW1 1235   1.717   2.987   1.758  2.3780 -0.8738 -1.2605
  412SOL    HW2 1236   1.769   2.878   1.867  0.1545 -0.0131  1.1906
  413SOL     OW 1237   2.717   1.098   0.357  0.1552  0.1896 -0.2138
  413SOL    HW1 1238   2.682   1.098   0.260 -2.1256 -1.1860  0.8224
  413SOL    HW2 1239   2.818   1.101   0.362  0.5264  4.3818 -0.6968
  414SOL     OW 1240   2.965   1.382   0.279  0.6027  0.6869  0.3715
  414SOL    HW1 1241   2.875   1.414   0.312 -1.7860 -2.7947  1.5258
  414SOL    HW2 1242   2.997   1.441   0.198  0.6444 -2.2390 -0.0040
  415SOL     OW 1243   1.886   1.928   2.527 -0.1818  0.0281  0.8042
  415SOL    HW1 1244   1.929   1.938   2.433 -1.9848 -2.8553 -1.0658
  415SOL    HW2 1245   1.881   2.019   2.575 -2.0378  0.4000 -0.0149
  416SOL     OW 1246   2.462   2.097   1.264  0.0964  0.5026  0.5638
  416SOL    HW1 1247   2.544   2.126   1.319 -0.8254  0.0239 -3.1861
  416SOL    HW2 1248   2.371   2.126   1.295 -0.8861 -0.9056  3.8550
  417SOL     OW 1249   0.560   0.474   0.882  0.0336 -0.3733 -0.5032
  417SOL    HW1 1250   0.535   0.542   0.809  1.6291  1.2784 -2.7931
  417SOL    HW2 1251   0.497   0.480   0.965  4.9390 -1.6126  0.8957
  418SOL     OW 1252   1.082   0.193   1.185  0.4338 -0.1256  0.9250
  418SOL    HW1 1253   1.154   0.211   1.255 -0.9446  0.0416  1.9862
  418SOL    HW2 1254   0.995   0.222   1.223  1.7746 -1.7941 -3.5114
  419SOL     OW 1255   1.083   0.494   0.107 -0.1658  0.2624  0.2769
  419SOL    HW1 1256   0.995   0.447   0.077 -1.1034 -1.5642  1.3572
  419SOL    HW2 1257   1.094   0.500   0.210  0.7057  1.4819  1.1542
  420SOL     OW 1258   0.380   1.476   1.929  1.2077 -0.3038 -0.2194
  420SOL    HW1 1259   0.396   1.470   1.831  1.6176 -2.0402  1.5340
  420SOL    HW2 1260   0.332   1.396   1.969  2.8519  0.9047 -2.7165
  421SOL     OW 1261   1.788   2.860   1.190  0.2610  0.0718 -0.1513
  421SOL    HW1 1262   1.698   2.816   1.196 -1.6494 -0.4736 -1.2244
  421SOL    HW2 1263   1.859   2.793   1.157 -1.5107 -2.2105 -3.0676
  422SOL     OW 1264   0.151   0.101   2.241 -0.3533 -0.3058 -0.0165
  422SOL    HW1 1265   0.228   0.028   2.233  2.6752 -2.0843 -0.5918
  422SOL    HW2 1266   0.162   0.170   2.167 -3.3475 -0.6043  0.3023
  423SOL     OW 1267   0.862   1.714   3.068  0.3483  0.3408 -0.3563
  423SOL    HW1 1268   0.809   1.644   3.129 -1.0468  0.4110 -2.1205
  423SOL    HW2 1269   0.824   1.725   2.975 -1.4891  2.4957 -1.2805
  424SOL     OW 1270   2.125   2.585   2.635 -0.3542 -0.0935 -0.0530
  424SOL    HW1 1271   2.190   2.518   2.599 -2.7847 -0.3822 -0.2870
  424SOL    HW2 1272   2.168   2.673   2.648  0.1496 -1.8229  1.2485
  425SOL     OW 1273   0.163   0.775   1.799 -0.1218 -0.2511 -0.1749
  425SOL    HW1 1274   0.158   0.786   1.701  0.7938  1.6527  0.4334
  425SOL    HW2 1275   0.197   0.862   1.839  0.2956  0.2602  2.7576
  426SOL     OW 1276   2.113   0.303   1.933  0.5503 -0.2992 -0.5180
  426SOL    HW1 1277   2.027   0.288   1.885  2.4328 -0.9909 -0.7958
  426SOL    HW2 1278   2.185   0.328   1.865 -0.6592  0.2833 -1.9896
  427SOL     OW 1279   0.200   0.583   1.076 -0.4704 -0.7286  0.0424
  427SOL    HW1 1280   0.269   0.508   1.076  1.2281 -0.2245 -2.9115
  427SOL    HW2 1281   0.209   0.640   0.993 -2.1037  0.4040  0.9051
  428SOL     OW 1282   0.009   0.920   0.814 -0.1013  0.0266 -0.6829
  428SOL    HW1 1283  -0.084   0.874   0.797  2.2188 -0.6722 -2.9655
  428SOL    HW2 1284   0.010   0.979   0.898  1.7516 -1.8418 -1.6705
  429SOL     OW 1285   0.308   2.658   0.926 -0.1445  0.4148 -0.5818
  429SOL    HW1 1286   0.389   2.658   0.987  2.6701  2.3089 -1.2775
  429SOL    HW2 1287   0.285   2.564   0.895 -0.0758 -0.5379  2.9067
  430SOL     OW 1288   0.838   2.885   0.051 -0.0092 -0.1596  0.0962
  430SOL    HW1 1289   0.764   2.894   0.122 -0.9542  0.1898 -0.8096
  430SOL    HW2 1290   0.927   2.918   0.094  2.0875 -1.0504  0.9504
  431SOL     OW 1291   0.023   1.403   1.939 -0.0874 -0.2012 -0.4476
  431SOL    HW1 1292  -0.001   1.319   1.886  1.6320 -1.5260 -1.8565
  431SOL    HW2 1293   0.116   1.387   1.973 -2.7939  0.6713 -1.9325
  432SOL     OW 1294   1.545   1.973   2.348 -0.1229 -0.9059  0.2310
  432SOL    HW1 1295   1.474   2.039   2.392 -2.1704 -0.7059  3.4457
  432SOL    HW2 1296   1.569   1.891   2.403 -1.7087 -0.5472 -0.1804
  433SOL     OW 1297   1.593   0.252   2.184  0.3117  0.1467 -0.2475
  433SOL    HW1 1298   1.575   0.254   2.082 -0.9594  0.2944 -1.8290
  433SOL    HW2 1299   1.586   0.348   2.218  2.4124 -1.4449 -0.8975
  434SOL     OW 1300   0.948   2.660   2.379 -0.3349 -0.0860 -0.0812
  434SOL    HW1 1301   0.965   2.580   2.435  0.0631 -1.6646  1.7174
  434SOL    HW2 1302   0.859   2.648   2.339  0.6363 -2.2943 -2.1456
  435SOL     OW 1303   2.468   2.809   1.979  0.0062  0.4068 -0.4840
  435SOL    HW1 1304   2.366   2.798   2.003 -0.9037  3.1423 -1.4668
  435SOL    HW2 1305   2.484   2.813   1.881 -0.4110 -0.6222 -2.4971
  436SOL     OW 1306   1.078   2.100   2.820  0.0956 -0.2332 -0.2727
  436SOL    HW1 1307   0.987   2.068   2.784  0.8924 -2.1093 -0.9673
  436SOL    HW2 1308   1.070   2.204   2.828 -0.3031 -0.7022  0.0776
  437SOL     OW 1309   1.497   2.700   0.178 -0.3822  0.2399  0.1477
  437SOL    HW1 1310   1.480   2.706   0.279 -0.4403 -3.7008 -0.5357
  437SOL    HW2 1311   1.598   2.689   0.165 -0.6016 -1.4202  1.3934
  438SOL     OW 1312   1.499   1.058   0.703 -0.5873 -0.3507  0.1839
  438SOL    HW1 1313   1.578   1.017   0.649  1.9619  0.7460  1.3703
  438SOL    HW2 1314   1.419   1.090   0.648  1.2968 -0.1012  0.1859
  439SOL     OW 1315   2.933   2.129   0.011  0.0796  0.1926 -0.0373
  439SOL    HW1 1316   2.954   2.026   0.015 -1.4993  1.7124  2.1541
  439SOL    HW2 1317   2.917   2.175   0.103 -2.3680 -0.7628 -2.4099
  440SOL     OW 1318   2.882   0.642   2.639  0.0131 -0.8549  0.3042
  440SOL    HW1 1319   2.892   0.745   2.632  1.5073  0.5049 -0.1693
  440SOL    HW2 1320   2.969   0.593   2.631 -0.9498  1.9850 -0.5761
  441SOL     OW 1321   1.117   1.628   1.875 -0.1210  0.6965  0.8740
  441SOL    HW1 1322   1.071   1.600   1.787  1.7520 -1.5214  0.4599
  441SOL    HW2 1323   1.059   1.604   1.952 -0.7383 -0.2971 -1.0507
  442SOL     OW 1324   1.577   1.707   2.476  0.1908 -0.3168  0.6993
  442SOL    HW1 1325   1.670   1.722   2.509  1.9883 -0.7922 -1.8140
  442SOL    HW2 1326   1.505   1.734   2.534 -1.3143  0.2274 -2.4076
  443SOL     OW 1327   0.967   2.162   1.093 -0.3754 -0.4016  0.9288
  443SOL    HW1 1328   0.991   2.159   0.995  0.6783  1.8885 -1.0187
  443SOL    HW2 1329   0.904   2.085   1.116 -0.5602 -0.6558  0.9097
  444SOL     OW 1330   1.605   1.642   2.083  0.5630 -0.4203 -0.5318
  444SOL    HW1 1331   1.537   1.566   2.074  1.6684 -0.9506 -0.3408
  444SOL    HW2 1332   1.560   1.732   2.096 -0.5868 -0.6977 -4.1172
  445SOL     OW 1333   0.167   0.695   2.237  0.3990 -0.1842  0.2402
  445SOL    HW1 1334   0.117   0.620   2.289  0.6098 -1.1883  1.0998
  445SOL    HW2 1335   0.245   0.739   2.284 -1.4431 -0.8500 -1.1603
  446SOL     OW 1336   1.327   0.390   0.072 -0.7682 -0.1436  0.7217
  446SOL    HW1 1337   1.321   0.316   0.003  1.0059 -1.7051 -1.4189
  446SOL    HW2 1338   1.236   0.431   0.096 -1.9487  1.0873 -0.3611
  447SOL     OW 1339   1.212   3.008   1.463 -0.3835  0.3423 -0.0235
  447SOL    HW1 1340   1.164   2.940   1.397  0.3761  3.5884 -0.1187
  447SOL    HW2 1341   1.273   2.957   1.524  0.5539 -2.0677 -0.6883
  448SOL     OW 1342   2.854   0.931   2.348 -0.0290  0.2342  0.6406
  448SOL    HW1 1343   2.909   0.939   2.435  1.9867 -1.2790  1.7824
  448SOL    HW2 1344   2.911   0.887   2.273 -0.2285  1.1423  1.7440
  449SOL     OW 1345   2.828   2.117   2.848  0.2032  0.7436 -0.2974
  449SOL    HW1 1346   2.813   2.212   2.811  0.9667  0.5072 -0.0405
  449SOL    HW2 1347   2.865   2.116   2.943 -1.7652 -1.2733 -0.0284
  450SOL     OW 1348   1.439   2.252   1.645  0.7368 -0.0756 -0.4123
  450SOL    HW1 1349   1.477   2.308   1.721 -1.7665  0.6399  0.4342
  450SOL    HW2 1350   1.486   2.159   1.641 -0.3248 -1.0366 -0.5176
  451SOL     OW 1351   1.399   1.999   1.058 -0.4520 -0.6383 -0.3831
  451SOL    HW1 1352   1.383   2.069   1.128  1.0913  0.8783 -1.5126
  451SOL    HW2 1353   1.403   1.903   1.093 -1.1136  1.5150  0.4506
  452SOL     OW 1354   0.810   0.430   1.188  0.1620 -0.5076 -0.0924
  452SOL    HW1 1355   0.814   0.417   1.089 -0.0553  1.6493 -0.0415
  452SOL    HW2 1356   0.805   0.338   1.235 -1.2778 -0.3455  1.3159
  453SOL     OW 1357   0.596   1.399   1.673  0.4847 -0.1239 -0.1533
  453SOL    HW1 1358   0.509   1.446   1.669  0.2166  0.0990 -0.1454
  453SOL    HW2 1359   0.597   1.322   1.737 -0.1447 -3.3150 -1.2021
  454SOL     OW 1360   1.816   1.061   0.088  1.0027 -0.0617  0.2982
  454SOL    HW1 1361   1.831   0.960   0.085 -1.3449 -2.4488 -0.1705
  454SOL    HW2 1362   1.884   1.103   0.150  0.6846  3.0103 -0.7418
  455SOL     OW 1363   1.258   2.698   1.476 -0.4012  0.1303 -0.5779
  455SOL    HW1 1364   1.261   2.742   1.565 -0.0587 -2.1040  2.1529
  455SOL    HW2 1365   1.165   2.673   1.460 -2.5556 -1.8052 -3.3084
  456SOL     OW 1366   0.885   2.963   0.426 -0.5216  0.6022  0.4876
  456SOL    HW1 1367   0.936   2.973   0.341  2.8335  3.1799  1.0214
  456SOL    HW2 1368   0.943   2.967   0.512 -2.4455  2.2970 -1.7394
  457SOL     OW 1369   1.643   0.425   1.035 -0.1739 -0.0082  0.1216
  457SOL    HW1 1370   1.722   0.358   1.023 -1.2778  1.1301 -0.2507
  457SOL    HW2 1371   1.638   0.464   1.126  2.6412 -2.7250  0.5427
  458SOL     OW 1372   2.394   0.736   1.508  0.3542  0.4368 -0.2763
  458SOL    HW1 1373   2.375   0.814   1.447  0.8479  0.0084 -2.2571
  458SOL    HW2 1374   2.360   0.655   1.464  3.7049 -0.2470  1.1660
  459SOL     OW 1375   2.960   2.822   2.204 -0.5551  0.4122  0.4219
  459SOL    HW1 1376   2.859   2.830   2.198  0.1596 -0.1383  0.5509
  459SOL    HW2 1377   2.996   2.913   2.231  0.7796 -2.0906 -1.5046
  460SOL     OW 1378   1.735   1.092   2.607 -0.1785  0.0045 -0.0905
  460SOL    HW1 1379   1.690   1.182   2.596  1.3183  0.3589 -0.5539
  460SOL    HW2 1380   1.833   1.105   2.644 -1.7253 -0.0896 -0.5316
  461SOL     OW 1381   0.880   2.597   2.839  0.0482 -0.5730  0.8451
  461SOL    HW1 1382   0.858   2.623   2.932 -0.7850 -0.2642 -0.9831
  461SOL    HW2 1383   0.895   2.673   2.775  2.7114  2.0136  2.9958
  462SOL     OW 1384   2.292   0.497   2.343 -0.4344  0.2422  0.1018
  462SOL    HW1 1385   2.260   0.414   2.298  0.0101 -1.5001 -0.5301
  462SOL    HW2 1386   2.360   0.479   2.411 -0.0323 -2.0683 -2.3856
  463SOL     OW 1387   1.307   2.322   1.949  0.0382 -0.3487  0.1672
  463SOL    HW1 1388   1.262   2.397   2.000 -2.2190 -1.9451 -0.2019
  463SOL    HW2 1389   1.407   2.333   1.937  2.5749 -1.4512  0.4566
  464SOL     OW 1390   0.004   2.411   1.468  0.0435  0.8450  0.2609
  464SOL    HW1 1391  -0.082   2.463   1.448  0.3751 -1.5195  2.1634
  464SOL    HW2 1392   0.083   2.479   1.459 -0.2844 -3.7841 -0.6006
  465SOL     OW 1393   1.891   0.274   1.718 -0.1620  0.0765 -0.3013
  465SOL    HW1 1394   1.941   0.215   1.649  1.7333 -4.0587 -4.0012
  465SOL    HW2 1395   1.791   0.260   1.721  0.2497  1.5347  0.4554
  466SOL     OW 1396   1.233   2.998   2.646 -0.1351 -0.3747 -0.1148
  466SOL    HW1 1397   1.230   3.086   2.701 -0.0499  1.2270 -0.9295
  466SOL    HW2 1398   1.235   2.922   2.713  0.4752  0.9627  0.5687
  467SOL     OW 1399   0.221   2.676   0.458  0.5034 -0.0080 -0.1630
  467SOL    HW1 1400   0.298   2.715   0.516 -1.3208  1.6640 -3.4756
  467SOL    HW2 1401   0.266   2.625   0.379  0.8594 -0.2387 -1.3996
  468SOL     OW 1402   2.679   2.088   1.088  0.4342  0.1077  0.6116
  468SOL    HW1 1403   2.587   2.085   1.133 -0.2640 -0.4383  2.0635
  468SOL    HW2 1404   2.732   2.166   1.127 -0.2596 -0.4781 -1.0013
  469SOL     OW 1405   0.620   1.796   0.403  0.4065 -0.5381 -0.5642
  469SOL    HW1 1406   0.559   1.717   0.429  1.4876  2.4965  1.1717
  469SOL    HW2 1407   0.567   1.878   0.411 -0.8841 -2.9086  0.3337
  470SOL     OW 1408   2.005   2.995   0.901 -0.5454 -0.3554 -0.3843
  470SOL    HW1 1409   2.045   2.998   0.993  1.2124  0.2262  0.5887
  470SOL    HW2 1410   2.059   2.929   0.841  1.3135 -0.7174 -2.5844
  471SOL     OW 1411   2.645   2.383   1.309  0.2457 -0.3640  0.0366
  471SOL    HW1 1412   2.545   2.404   1.295 -0.8937  1.7630  2.3715
  471SOL    HW2 1413   2.665   2.299   1.366  0.6206  1.9090 -0.4231
  472SOL     OW 1414   0.477   1.581   0.486 -0.1240 -0.4349 -0.0631
  472SOL    HW1 1415   0.385   1.594   0.517  0.9793  3.8220  1.3809
  472SOL    HW2 1416   0.539   1.546   0.562 -0.1566 -0.7958 -3.7593
  473SOL     OW 1417   0.564   2.099   1.313 -0.3954  0.2611  0.2120
  473SOL    HW1 1418   0.508   2.106   1.397 -4.3560 -0.1831 -0.5184
  473SOL    HW2 1419   0.535   2.023   1.250  0.0735 -1.4209 -0.0226
  474SOL     OW 1420   0.344   2.388   1.154  0.0672  0.3036  0.0660
  474SOL    HW1 1421   0.281   2.471   1.168  1.4224  0.1320  0.2404
  474SOL    HW2 1422   0.284   2.314   1.121 -1.1962  0.5613  0.8705
  475SOL     OW 1423   0.754   0.198   0.673 -0.7411  0.2349  0.8112
  475SOL    HW1 1424   0.664   0.246   0.680 -0.5336 -1.9638  0.9855
  475SOL    HW2 1425   0.784   0.156   0.763 -1.2635  0.8416 -2.6674
  476SOL     OW 1426   0.753   0.737   0.300 -0.4841 -0.8860 -0.4706
  476SOL    HW1 1427   0.694   0.818   0.331 -0.1766  2.5592  1.0773
  476SOL    HW2 1428   0.850   0.767   0.298  0.5836  0.7525  1.7174
  477SOL     OW 1429   0.717   3.062   1.129  0.2016 -0.0815 -0.1436
  477SOL    HW1 1430   0.766   2.976   1.142  2.7339  1.8347 -0.1824
  477SOL    HW2 1431   0.620   3.047   1.117 -0.1649  0.0922 -0.2642
  478SOL     OW 1432   1.062   2.388   2.809 -0.0489  0.1246  0.5729
  478SOL    HW1 1433   0.985   2.455   2.825 -1.4351 -0.5137 -0.5401
  478SOL    HW2 1434   1.140   2.404   2.872  1.0184  0.2870  1.8187
  479SOL     OW 1435   2.021   0.763   1.087  0.0302  0.0808 -0.7866
  479SOL    HW1 1436   2.086   0.697   1.042  2.1811  1.9421 -1.5842
  479SOL    HW2 1437   1.930   0.756   1.041  1.3582 -3.1289  1.9286
  480SOL     OW 1438   2.300   2.444   0.246  0.1999 -0.1909 -0.0364
  480SOL    HW1 1439   2.308   2.535   0.202  1.4948 -3.0294 -3.6047
  480SOL    HW2 1440   2.200   2.432   0.276  4.7995 -0.0092 -2.9613
  481SOL     OW 1441   0.659   1.773   0.861  0.1882 -0.6202  0.0527
  481SOL    HW1 1442   0.747   1.801   0.821 -0.1234 -0.4270 -0.3658
  481SOL    HW2 1443   0.583   1.842   0.863  0.9414  2.0723 -0.5196
  482SOL     OW 1444   0.978   2.146   1.730  0.5741 -0.2290  0.1049
  482SOL    HW1 1445   1.007   2.065   1.783  1.8285  0.7113 -0.6079
  482SOL    HW2 1446   1.054   2.188   1.677 -2.1816  0.0387  0.3816
  483SOL     OW 1447   0.692   1.202   1.494  0.3773  0.2286  0.0069
  483SOL    HW1 1448   0.794   1.191   1.504 -1.5700 -2.5005 -0.7504
  483SOL    HW2 1449   0.657   1.275   1.558  0.8973 -0.0470  1.7218
  484SOL     OW 1450   2.777   2.907   0.810 -0.1086 -0.5525  0.2952
  484SOL    HW1 1451   2.838   2.979   0.782  1.6082 -1.6215 -0.4836
  484SOL    HW2 1452   2.684   2.960   0.823  2.6103  0.5259 -1.3091
  485SOL     OW 1453   2.635   0.334   0.838  0.2698 -0.0696 -0.4642
  485SOL    HW1 1454   2.696   0.287   0.770  2.4866 -1.9091 -0.9702
  485SOL    HW2 1455   2.546   0.283   0.844  0.2722  1.3301 -0.6766
  486SOL     OW 1456   2.094   2.543   2.921 -0.3302  0.1012  0.2673
  486SOL    HW1 1457   2.106   2.539   2.819 -0.4862 -2.1040 -0.8786
  486SOL    HW2 1458   2.168   2.594   2.969  3.0673 -0.0039  0.1927
  487SOL     OW 1459   1.403   1.733   1.169 -0.3517  0.7044  0.4115
  487SOL    HW1 1460   1.430   1.660   1.109  1.2111 -2.9655 -1.8389
  487SOL    HW2 1461   1.412   1.711   1.268  1.4621  2.4715  0.0214
  488SOL     OW 1462   2.417   2.732   2.458  0.1512 -0.1242 -0.9561
  488SOL    HW1 1463   2.411   2.776   2.553 -0.7160 -1.0792 -3.0613
  488SOL    HW2 1464   2.332   2.751   2.399 -0.3935  0.0735  2.2200
  489SOL     OW 1465   1.566   1.540   0.370  0.1762 -0.9606  0.0404
  489SOL    HW1 1466   1.542   1.501   0.282 -0.0587  1.3558  0.3679
  489SOL    HW2 1467   1.667   1.564   0.364 -2.1014  1.1638  1.9353
  490SOL     OW 1468   1.428   2.943   2.455 -0.6002  0.1730 -0.2066
  490SOL    HW1 1469   1.354   2.948   2.530  0.7886  0.3423  0.8190
  490SOL    HW2 1470   1.419   3.022   2.395 -1.6826 -0.1670  0.8035
  491SOL     OW 1471   1.492   0.744   1.439 -0.2259 -0.6253  0.1699
  491SOL    HW1 1472   1.481   0.791   1.525  1.2205  1.3153 -2.5495
  491SOL    HW2 1473   1.414   0.762   1.373  2.4585  0.2018  2.2755
  492SOL     OW 1474   1.752   2.221   2.997  0.5633 -0.5651  0.2432
  492SOL    HW1 1475   1.757   2.221   2.899 -0.2043 -1.4423  0.2201
  492SOL    HW2 1476   1.817   2.291   3.027 -1.8558 -1.0619 -1.1575
  493SOL     OW 1477   1.654   2.575   0.716 -0.8770  0.4379 -0.2373
  493SOL    HW1 1478   1.561   2.590   0.757  0.1866  0.5569  0.1047
  493SOL    HW2 1479   1.652   2.494   0.655 -1.1451  1.3181 -0.3060
  494SOL     OW 1480   1.195   1.049   2.987  0.3640  0.2334 -0.2057
  494SOL    HW1 1481   1.165   1.147   3.003  2.4093  2.9528 -0.0417
  494SOL    HW2 1482   1.131   0.999   2.928  0.1004  1.9984  1.5316
  495SOL     OW 1483   2.212   0.876   1.803  0.1961  0.6042  0.2870
  495SOL    HW1 1484   2.251   0.939   1.738 -2.0257 -4.5280  1.6322
  495SOL    HW2 1485   2.259   0.784   1.800 -3.1019 -0.4458 -0.8234
  496SOL     OW 1486   2.184   2.348   2.024 -0.1937 -0.6293  0.5325
  496SOL    HW1 1487   2.145   2.262   2.068  2.0719  2.2183  0.5978
  496SOL    HW2 1488   2.165   2.432   2.081  2.1811 -0.4516 -1.2365
  497SOL     OW 1489   2.335   1.384   2.638  0.3235 -0.2696 -0.3006
  497SOL    HW1 1490   2.311   1.483   2.663 -0.0821  0.3716 -1.5930
  497SOL    HW2 1491   2.251   1.328   2.606 -0.6065 -0.2167 -1.7473
  498SOL     OW 1492   1.143   1.768   1.261 -0.5291  0.5955 -0.3497
  498SOL    HW1 1493   1.082   1.693   1.228 -0.1953 -1.5725 -1.6917
  498SOL    HW2 1494   1.240   1.761   1.230  2.1439  2.1007 -0.9892
  499SOL     OW 1495   2.848   2.114   2.360 -0.0309  0.1639  0.3586
  499SOL    HW1 1496   2.912   2.122   2.281  1.0481  2.5958 -0.3232
  499SOL    HW2 1497   2.753   2.117   2.331  0.6447 -1.0628  0.8795
  500SOL     OW 1498   1.250   2.460   2.962  0.4896  0.3079  0.3025
  500SOL    HW1 1499   1.330   2.406   2.979 -2.7361  2.0519  1.3228
  500SOL    HW2 1500   1.252   2.553   3.009 -0.8681 -2.1882  0.3050
  501SOL     OW 1501   1.933   2.412   0.006 -0.5138 -0.0688  0.3447
  501SOL    HW1 1502   1.989   2.465  -0.055  0.2350  1.9395  2.8260
  501SOL    HW2 1503   1.993   2.354   0.067 -0.1331  1.5005  0.1431
  502SOL     OW 1504   0.953   0.294   1.849  0.0120  0.4453  0.0537
  502SOL    HW1 1505   1.008   0.235   1.784  1.4986 -1.0783 -1.7345
  502SOL    HW2 1506   0.866   0.252   1.872  1.2927 -1.0661 -0.9120
  503SOL     OW 1507   0.291   0.246   1.626 -0.3558 -0.4817  0.0054
  503SOL    HW1 1508   0.316   0.210   1.533  2.1605  1.9840 -0.6453
  503SOL    HW2 1509   0.228   0.330   1.621  0.8964 -0.4124  1.9851
  504SOL     OW 1510   1.915   1.115   1.286  0.2048 -0.4887 -0.6408
  504SOL    HW1 1511   1.998   1.062   1.253  2.7125  0.2676  0.9094
  504SOL    HW2 1512   1.836   1.051   1.288  2.1318 -0.5820  1.1839
  505SOL     OW 1513   2.569   2.092   2.281 -0.2878  0.5583 -0.1733
  505SOL    HW1 1514   2.556   2.037   2.365 -1.8282  0.3579 -0.5357
  505SOL    HW2 1515   2.534   2.037   2.201 -1.2862 -0.4127 -1.0007
  506SOL     OW 1516   2.780   1.587   1.623  0.3201 -0.2335  0.3551
  506SOL    HW1 1517   2.821   1.577   1.718  0.9371 -0.4332  2.9855
  506SOL    HW2 1518   2.695   1.644   1.633 -0.8779 -0.2304  0.1251
  507SOL     OW 1519   0.933   2.359   2.118 -0.6604  0.0387  0.0028
  507SOL    HW1 1520   0.944   2.356   2.018  0.3334  0.6785  3.3073
  507SOL    HW2 1521   0.862   2.425   2.150 -0.0066 -0.0496  0.2404
  508SOL     OW 1522   1.676   0.878   2.875 -0.2871  0.3415  0.0883
  508SOL    HW1 1523   1.606   0.921   2.933  0.8754  0.8761  2.1853
  508SOL    HW2 1524   1.695   0.941   2.799 -0.2930  2.7496 -1.3769
  509SOL     OW 1525   0.629   2.027   3.073 -0.6919 -0.1762  0.0519
  509SOL    HW1 1526   0.720   1.993   3.108  2.9897 -0.7753  3.2269
  509SOL    HW2 1527   0.606   1.997   2.979 -2.4495 -1.1931  1.7267
  510SOL     OW 1528   1.087   3.002   0.603  0.1572  0.0801 -0.0840
  510SOL    HW1 1529   1.089   3.031   0.700  0.3835  0.0125 -2.6565
  510SOL    HW2 1530   1.157   3.064   0.559 -1.6283 -1.1828  1.7082
  511SOL     OW 1531   1.357   2.877   1.646  0.0803  0.5467 -0.6840
  511SOL    HW1 1532   1.456   2.882   1.610  0.7719 -1.6667 -1.7162
  511SOL    HW2 1533   1.348   2.926   1.734  0.2536  0.3651  1.1602
  512SOL     OW 1534   2.680   2.143   1.453  0.3314 -0.1400 -0.4333
  512SOL    HW1 1535   2.731   2.185   1.530 -1.9318  1.6273 -3.4314
  512SOL    HW2 1536   2.699   2.039   1.453 -0.0700  0.9047  0.7928
  513SOL     OW 1537   0.390   2.192   0.849  0.9193 -0.0356 -0.0368
  513SOL    HW1 1538   0.328   2.274   0.869 -0.9345  0.1213  1.1334
  513SOL    HW2 1539   0.478   2.229   0.820  1.5848 -2.2636 -1.4914
  514SOL     OW 1540   0.019   3.040   0.321 -0.3089 -0.1975 -0.5543
  514SOL    HW1 1541   0.073   3.098   0.391  0.8175 -0.8590 -2.8011
  514SOL    HW2 1542  -0.065   3.090   0.291 -2.3739 -1.3566 -0.4214
  515SOL     OW 1543   0.821   2.621   0.002 -0.3205  0.2028  0.0319
  515SOL    HW1 1544   0.835   2.720   0.023  0.9732 -0.5574  1.7104
  515SOL    HW2 1545   0.728   2.597   0.042 -0.3003  0.2772  2.5759
  516SOL     OW 1546   0.403   2.724   0.674  0.3092 -0.0053 -0.2881
  516SOL    HW1 1547   0.356   2.707   0.765 -0.6634 -0.7389 -1.2329
  516SOL    HW2 1548   0.482   2.662   0.674  2.0364  0.3337  0.9338
  517SOL     OW 1549   1.637   2.196   0.328 -0.0197 -0.5735  0.0511
  517SOL    HW1 1550   1.661   2.137   0.249  0.0132 -2.1469  1.7462
  517SOL    HW2 1551   1.607   2.290   0.297  0.7575  0.8758  1.2651
  518SOL     OW 1552   1.627   1.589   3.039  1.2143  0.4461 -0.8723
  518SOL    HW1 1553   1.724   1.603   3.068 -0.4235 -3.1427  0.4804
  518SOL    HW2 1554   1.608   1.674   2.984 -0.4801  2.7685  1.3941
  519SOL     OW 1555   0.221   1.639   0.602  0.6710 -0.6746 -0.2472
  519SOL    HW1 1556   0.219   1.723   0.654  0.7875  1.2342 -2.5021
  519SOL    HW2 1557   0.184   1.662   0.511  1.2445 -1.7727 -1.6604
  520SOL     OW 1558   1.361   1.838   1.573  0.0630  0.3737  0.0577
  520SOL    HW1 1559   1.386   1.785   1.658 -0.6563 -0.9342 -1.3051
  520SOL    HW2 1560   1.430   1.912   1.552  0.0996  1.2942 -2.7965
  521SOL     OW 1561   1.312   3.025   1.886  0.0468 -0.0963 -0.4751
  521SOL    HW1 1562   1.310   2.993   1.982  0.9446 -1.7987 -1.2221
  521SOL    HW2 1563   1.219   3.066   1.866  1.0124 -1.5948 -0.4314
  522SOL     OW 1564   2.799   1.942   1.682 -0.1901  0.0765 -0.5171
  522SOL    HW1 1565   2.823   2.041   1.681  0.8001  0.3893 -1.4495
  522SOL    HW2 1566   2.779   1.899   1.591  2.9767  0.4783  1.5108
  523SOL     OW 1567   2.213   3.045   1.964  0.2366  0.0158 -0.1385
  523SOL    HW1 1568   2.271   3.116   1.910  2.4147  1.0487  0.1343
  523SOL    HW2 1569   2.133   3.089   2.008 -0.5705  2.5274 -2.0555
  524SOL     OW 1570   1.530   0.222   2.722  0.4446 -0.6368  0.3551
  524SOL    HW1 1571   1.536   0.127   2.691 -0.4880  1.2993 -0.4575
  524SOL    HW2 1572   1.578   0.234   2.812 -0.4060  0.4263  1.6623
  525SOL     OW 1573   2.000   1.182   0.276 -0.3584  0.7298  0.0870
  525SOL    HW1 1574   2.083   1.212   0.228 -0.4100  0.2111 -1.1985
  525SOL    HW2 1575   2.013   1.083   0.306 -0.4662  0.6819  0.5970
  526SOL     OW 1576   0.609   2.489   2.859 -0.3025 -0.5372 -0.5195
  526SOL    HW1 1577   0.707   2.513   2.840 -1.0801 -1.0640 -1.2034
  526SOL    HW2 1578   0.591   2.507   2.959 -1.4483  0.4216 -1.2043
  527SOL     OW 1579   0.398   1.020   0.630  0.4371 -0.5568 -0.6914
  527SOL    HW1 1580   0.392   0.972   0.718  1.1661  1.4986  1.4332
  527SOL    HW2 1581   0.304   1.054   0.607  0.6663 -1.3101 -1.3344
  528SOL     OW 1582   0.908   1.162   2.955 -0.0728 -0.5999  0.6305
  528SOL    HW1 1583   0.925   1.147   2.857 -0.7801  0.8474 -0.0676
  528SOL    HW2 1584   0.973   1.235   3.002 -1.2110  1.7137  0.4878
  529SOL     OW 1585   1.505   1.436   0.123  0.2033  0.9431 -0.3857
  529SOL    HW1 1586   1.409   1.469   0.116  0.2639  1.2636 -3.6652
  529SOL    HW2 1587   1.563   1.493   0.059 -0.1607 -2.0391  0.1164
  530SOL     OW 1588   1.477   0.512   2.229  0.0341 -0.0171  0.0712
  530SOL    HW1 1589   1.408   0.471   2.160 -1.3820 -1.4637 -0.7064
  530SOL    HW2 1590   1.436   0.569   2.308 -0.3515  1.2573  2.7226
  531SOL     OW 1591   1.024   0.905   2.786 -0.0905  0.5216 -0.0949
  531SOL    HW1 1592   0.993   0.841   2.859  2.3395  0.6589  0.8966
  531SOL    HW2 1593   0.946   0.936   2.730  1.8524  1.6426 -1.0199
  532SOL     OW 1594   2.627   1.090   0.103 -0.1964 -0.1001 -0.0958
  532SOL    HW1 1595   2.615   1.194   0.108  0.2249 -1.6417  0.1679
  532SOL    HW2 1596   2.537   1.045   0.100  1.8476  2.9030  0.9071
  533SOL     OW 1597   0.651   0.740   1.419  0.6904 -0.2364 -0.3460
  533SOL    HW1 1598   0.591   0.817   1.443 -0.4566 -0.2189 -0.7637
  533SOL    HW2 1599   0.626   0.710   1.326  0.9893  0.0602 -1.4067
  534SOL     OW 1600   2.191   2.922   0.257 -0.6181 -0.6231  0.2702
  534SOL    HW1 1601   2.113   2.944   0.195 -0.5569 -1.6355  0.3811
  534SOL    HW2 1602   2.236   3.008   0.293 -0.4784 -2.5894 -1.4668
  535SOL     OW 1603   1.220   0.886   2.611 -0.2807  0.3335  0.5910
  535SOL    HW1 1604   1.305   0.907   2.661  0.1115  1.6527 -0.9801
  535SOL    HW2 1605   1.148   0.895   2.679 -1.6490  1.8587 -1.2892
  536SOL     OW 1606   0.601   2.226   1.078  0.2297  0.4556  0.1782
  536SOL    HW1 1607   0.513   2.193   1.043 -0.5172  2.8448  0.0064
  536SOL    HW2 1608   0.623   2.187   1.171 -2.3253 -2.1751 -0.7967
  537SOL     OW 1609   2.566   0.337   1.860 -0.3515 -0.5852 -0.5050
  537SOL    HW1 1610   2.576   0.325   1.961  1.1220 -3.1656  1.1800
  537SOL    HW2 1611   2.467   0.332   1.832 -1.1139 -2.0964  2.4502
  538SOL     OW 1612   0.884   1.673   0.356  0.4201 -0.7027  0.6814
  538SOL    HW1 1613   0.891   1.634   0.451  2.1723  2.0240 -2.6865
  538SOL    HW2 1614   0.795   1.725   0.361  0.5431 -0.6540 -0.0548
  539SOL     OW 1615   2.316   0.388   1.761  0.9854  0.2901  0.0300
  539SOL    HW1 1616   2.353   0.484   1.764  1.9661 -1.7194 -2.3796
  539SOL    HW2 1617   2.303   0.350   1.664 -0.5554 -1.8927  0.6642
  540SOL     OW 1618   2.181   0.268   2.197 -0.5194  0.2243 -0.0007
  540SOL    HW1 1619   2.108   0.209   2.229 -2.4978  1.5085  0.6671
  540SOL    HW2 1620   2.182   0.280   2.095 -2.3021 -3.0085 -1.6621
  541SOL     OW 1621   0.517   1.721   2.870  1.2364 -0.0755 -0.0275
  541SOL    HW1 1622   0.506   1.826   2.852  0.2039  2.6910  0.9737
  541SOL    HW2 1623   0.487   1.703   2.965  1.4562 -0.2253 -1.0372
  542SOL     OW 1624   1.072   1.802   2.310 -0.0817  0.6585 -0.2567
  542SOL    HW1 1625   1.110   1.890   2.280 -0.0906  1.2136  1.3541
  542SOL    HW2 1626   1.044   1.804   2.409  0.7719  2.0592 -0.1812
  543SOL     OW 1627   1.727   0.131   0.149 -0.0890 -0.6792 -0.0457
  543SOL    HW1 1628   1.802   0.160   0.213  1.2127  0.7718  2.2619
  543SOL    HW2 1629   1.672   0.060   0.199 -0.3857 -2.1075  1.5104
  544SOL     OW 1630   2.662   2.360   2.014  0.2464  0.3210  0.3333
  544SOL    HW1 1631   2.603   2.432   2.050  0.5037 -0.3311 -0.8439
  544SOL    HW2 1632   2.750   2.361   2.059  3.7360  0.3329  0.0367
  545SOL     OW 1633   2.505   1.541   1.840  0.5630  0.0450 -0.4679
  545SOL    HW1 1634   2.544   1.450   1.840 -0.3882 -1.7458 -2.2089
  545SOL    HW2 1635   2.411   1.544   1.870 -1.4235 -0.5783 -0.0749
  546SOL     OW 1636   0.073   0.582   2.604  0.5682 -0.2705  0.3170
  546SOL    HW1 1637   0.125   0.514   2.662  0.9940  0.5113  0.6615
  546SOL    HW2 1638   0.052   0.544   2.509 -2.1667 -0.5840  0.3070
  547SOL     OW 1639   0.696   0.844   0.930 -0.0406  0.3261 -0.2326
  547SOL    HW1 1640   0.743   0.826   0.841  1.3293 -0.5967 -0.0371
  547SOL    HW2 1641   0.747   0.901   0.989 -1.3640  0.0270  0.2969
  548SOL     OW 1642   1.922   1.797   0.537  0.1898 -0.1889  0.9369
  548SOL    HW1 1643   1.825   1.811   0.572  0.7722 -1.4671  0.6985
  548SOL    HW2 1644   1.957   1.886   0.503  0.7342 -0.4852 -1.5994
  549SOL     OW 1645   2.309   1.548   2.298  0.5002  0.2281  0.5911
  549SOL    HW1 1646   2.258   1.600   2.370 -0.0860 -0.6414 -0.6766
  549SOL    HW2 1647   2.409   1.572   2.305  2.3498 -1.1071  1.8377
  550SOL     OW 1648   2.257   2.427   1.030 -0.0418 -0.5752  0.8570
  550SOL    HW1 1649   2.263   2.530   1.031 -4.5442 -0.7747 -0.0795
  550SOL    HW2 1650   2.173   2.395   0.987 -3.4596 -1.3077  1.1574
  551SOL     OW 1651   0.822   2.729   0.780 -0.3481  0.3687 -0.5141
  551SOL    HW1 1652   0.765   2.809   0.799  1.7066 -0.5773 -0.1547
  551SOL    HW2 1653   0.868   2.705   0.868 -0.1642  1.1749 -2.4880
  552SOL     OW 1654   0.294   1.253   0.213 -0.1396  0.8892 -0.1860
  552SOL    HW1 1655   0.260   1.169   0.266 -1.7442 -0.6249 -1.1166
  552SOL    HW2 1656   0.290   1.240   0.111  1.5192  2.1707  1.5606
  553SOL     OW 1657   0.362   2.185   2.555  0.2653 -0.0323  0.0715
  553SOL    HW1 1658   0.409   2.249   2.487  2.8037  1.0708 -0.3148
  553SOL    HW2 1659   0.390   2.211   2.650  0.4331 -2.8274  1.0490
  554SOL     OW 1660   2.016   1.303   1.073 -0.1964 -0.1417 -0.0085
  554SOL    HW1 1661   2.101   1.263   1.112  1.0130  0.7663 -0.3797
  554SOL    HW2 1662   1.941   1.301   1.141 -1.7270  1.4363 -2.9367
  555SOL     OW 1663   1.398   0.098   2.322  0.1915 -0.7791  0.1299
  555SOL    HW1 1664   1.476   0.154   2.283  0.2291  2.3757  1.3026
  555SOL    HW2 1665   1.335   0.067   2.248 -2.3274  1.3232  0.1023
  556SOL     OW 1666   0.211   0.203   0.965 -0.0243 -0.1285 -0.3658
  556SOL    HW1 1667   0.243   0.124   0.910  0.6775  0.7625  1.4635
  556SOL    HW2 1668   0.134   0.250   0.913  0.2781 -0.9830 -1.7937
  557SOL     OW 1669   1.340   2.929   1.155  0.2726  0.0506  0.3027
  557SOL    HW1 1670   1.392   2.842   1.168 -0.4195  0.6544  1.8126
  557SOL    HW2 1671   1.405   3.007   1.157 -1.2237  0.9185  0.9603
  558SOL     OW 1672   0.677   0.480   1.552  0.0930  0.0118  0.3561
  558SOL    HW1 1673   0.655   0.572   1.508  2.9348 -1.7731  1.3664
  558SOL    HW2 1674   0.774   0.473   1.585  1.7113 -3.8506 -0.4354
  559SOL     OW 1675   1.233   0.848   0.107 -0.3499  0.1574  0.5815
  559SOL    HW1 1676   1.279   0.774   0.055 -2.0562  1.8428  2.0160
  559SOL    HW2 1677   1.195   0.918   0.040 -0.7195 -1.4637  0.1045
  560SOL     OW 1678   1.586   1.304   1.139  0.3943 -0.1962 -0.3900
  560SOL    HW1 1679   1.603   1.247   1.057  0.0853  1.5648 -0.0710
  560SOL    HW2 1680   1.669   1.325   1.192  0.6902 -0.5941 -1.5256
  561SOL     OW 1681   0.900   1.840   0.676 -0.4837  0.1761  0.0679
  561SOL    HW1 1682   0.954   1.849   0.763 -1.6035 -1.2343  1.0868
  561SOL    HW2 1683   0.920   1.745   0.646 -1.7598 -0.3522  1.7656
  562SOL     OW 1684   1.873   1.611   2.145  0.4730  0.1709 -0.1320
  562SOL    HW1 1685   1.899   1.513   2.174  0.9743  0.6894 -4.0564
  562SOL    HW2 1686   1.775   1.619   2.134 -3.1495 -1.9743  1.3798
  563SOL     OW 1687   1.354   1.423   2.171  0.4146  0.4410 -0.0703
  563SOL    HW1 1688   1.366   1.428   2.068 -1.1760 -0.3519  3.3095
  563SOL    HW2 1689   1.306   1.338   2.200 -0.8072 -1.8982 -1.7616
  564SOL     OW 1690   2.665   0.728   1.466  0.3620 -0.9310 -0.6858
  564SOL    HW1 1691   2.573   0.724   1.506 -0.0037 -1.0595 -1.3024
  564SOL    HW2 1692   2.663   0.770   1.374  1.7534 -2.2630 -2.9924
  565SOL     OW 1693   0.768   0.984   2.728  0.3830  0.0902  0.0254
  565SOL    HW1 1694   0.748   0.927   2.805  1.1405  1.2774  0.7304
  565SOL    HW2 1695   0.698   0.974   2.659 -1.6440  0.1354 -2.0399
  566SOL     OW 1696   3.068   2.772   0.421  0.3248  0.3951  0.1483
  566SOL    HW1 1697   3.080   2.864   0.375  1.9905 -0.1936  1.4208
  566SOL    HW2 1698   3.160   2.736   0.442 -1.3249 -4.0652  1.7104
  567SOL     OW 1699   1.877   1.062   0.969  0.4444  0.0219  0.4773
  567SOL    HW1 1700   1.798   1.124   0.940  1.2163 -2.6006 -0.3235
  567SOL    HW2 1701   1.947   1.117   1.023 -0.0882 -1.0716 -1.7495
  568SOL     OW 1702   1.403   0.697   2.811 -0.4310  0.0537 -0.4202
  568SOL    HW1 1703   1.456   0.781   2.786 -1.5349 -0.7094 -2.9300
  568SOL    HW2 1704   1.428   0.617   2.750 -1.2364  2.5700  0.2617
  569SOL     OW 1705   1.427   0.931   0.934  0.1088 -0.2914  0.4862
  569SOL    HW1 1706   1.463   0.980   0.853 -0.2415  1.0487  0.9796
  569SOL    HW2 1707   1.357   0.988   0.978  0.1309 -0.7476  1.1845
  570SOL     OW 1708   1.632   2.828   1.522  0.0005 -0.1254  0.1458
  570SOL    HW1 1709   1.600   2.745   1.470  0.6921  0.5330 -2.3788
  570SOL    HW2 1710   1.629   2.908   1.457  0.7755 -0.4758 -1.0081
  571SOL     OW 1711   0.237   2.223   0.010 -0.3283 -0.1944 -0.1243
  571SOL    HW1 1712   0.222   2.198   0.110  0.2776 -2.2436 -1.0220
  571SOL    HW2 1713   0.163   2.287  -0.023 -2.1992 -0.8386  0.1591
  572SOL     OW 1714   0.738   1.786   2.492 -0.0523  0.0710 -0.7318
  572SOL    HW1 1715   0.653   1.838   2.496 -2.4072  0.2747 -0.8088
  572SOL    HW2 1716   0.737   1.725   2.413 -2.3139 -1.9172 -3.1806
  573SOL     OW 1717   0.631   1.460   0.670 -0.0121  0.2103 -0.4921
  573SOL    HW1 1718   0.638   1.360   0.678 -0.7575  0.7893 -0.7305
  573SOL    HW2 1719   0.560   1.499   0.734  1.1894  0.7311 -1.0339
  574SOL     OW 1720   1.143   2.368   0.782 -0.2833  0.5571  0.4801
  574SOL    HW1 1721   1.074   2.438   0.753 -0.1447 -1.1915  1.4763
  574SOL    HW2 1722   1.097   2.277   0.795 -0.9763  0.3604 -1.0027
  575SOL     OW 1723   1.088   1.431   0.720  0.4290 -0.0133 -0.3647
  575SOL    HW1 1724   1.107   1.345   0.765  3.2026 -0.3780  0.5564
  575SOL    HW2 1725   1.078   1.422   0.618  1.1155  0.9858 -1.2131
  576SOL     OW 1726   2.237   0.608   0.994  0.3752  0.3242 -0.1668
  576SOL    HW1 1727   2.314   0.592   1.052 -0.7032 -1.4989  0.0715
  576SOL    HW2 1728   2.266   0.670   0.921  2.8543  0.3181 -0.8800
  577SOL     OW 1729   1.644   0.563   0.392  0.4303  0.5703 -0.3255
  577SOL    HW1 1730   1.580   0.526   0.458  1.0270 -3.6825 -0.8693
  577SOL    HW2 1731   1.637   0.514   0.303 -0.9742  1.0095  0.9243
  578SOL     OW 1732   2.321   0.919   2.073  0.4587  0.1727 -0.6140
  578SOL    HW1 1733   2.281   0.850   2.136  0.3074 -0.8289 -0.2082
  578SOL    HW2 1734   2.262   0.927   1.990 -0.9159 -0.9862  3.3685
  579SOL     OW 1735   1.066   1.564   2.167 -0.7139  0.0935 -0.1229
  579SOL    HW1 1736   1.082   1.658   2.215 -2.3396 -0.2755  0.4807
  579SOL    HW2 1737   1.156   1.519   2.147  0.4593  2.1946 -1.1800
  580SOL     OW 1738   1.328   2.993   0.244  0.1558 -0.2365 -0.2994
  580SOL    HW1 1739   1.274   2.917   0.286 -2.3628 -1.4449  1.2481
  580SOL    HW2 1740   1.312   2.999   0.140  0.5014 -0.1405  1.8439
  581SOL     OW 1741   0.629   0.198   2.901 -0.0647 -0.6688  0.0146
  581SOL    HW1 1742   0.628   0.281   2.960  1.7083  0.5338 -1.6550
  581SOL    HW2 1743   0.711   0.195   2.843 -0.1610  0.8483 -1.0849
  582SOL     OW 1744   1.142   2.831   2.252 -0.1032  0.4832  0.3608
  582SOL    HW1 1745   1.127   2.911   2.318  3.1150 -1.1146  0.8024
  582SOL    HW2 1746   1.096   2.745   2.289 -0.7760 -0.0395 -1.1234
  583SOL     OW 1747   1.187   2.729   1.918  0.4855 -0.6491  0.1677
  583SOL    HW1 1748   1.140   2.679   1.843  1.7570  2.3787 -2.9313
  583SOL    HW2 1749   1.132   2.806   1.947  0.5162  2.8772  3.2944
  584SOL     OW 1750   2.247   2.541   0.659 -0.3031  0.2926 -0.4433
  584SOL    HW1 1751   2.169   2.508   0.717 -0.8932  0.6020  1.9910
  584SOL    HW2 1752   2.292   2.623   0.696  0.0979  0.5747  0.9985
  585SOL     OW 1753   1.830   1.218   2.903  0.4344  0.2651  0.0703
  585SOL    HW1 1754   1.827   1.148   2.976 -0.1897  1.5100 -0.7800
  585SOL    HW2 1755   1.906   1.285   2.920  0.5149  0.9096  2.0601
  586SOL     OW 1756   0.705   0.838   2.949  0.0563 -0.0408  0.1663
  586SOL    HW1 1757   0.605   0.835   2.956 -0.6175  1.3061  0.3971
  586SOL    HW2 1758   0.741   0.888   3.031  0.2433 -0.1281  0.1144
  587SOL     OW 1759   1.992   2.673   1.088 -0.4624 -0.0654  0.2432
  587SOL    HW1 1760   1.922   2.615   1.042 -3.1169 -0.0891 -0.7402
  587SOL    HW2 1761   2.071   2.699   1.029 -1.2575  0.2838  0.8299
  588SOL     OW 1762   1.072   0.665   1.045 -0.5551 -0.9982  0.3399
  588SOL    HW1 1763   1.055   0.671   0.945  0.8927 -0.2725  0.5003
  588SOL    HW2 1764   1.148   0.597   1.066  1.6465  0.5890 -0.6077
  589SOL     OW 1765   1.939   2.189   0.741 -0.3766  0.4737  0.1454
  589SOL    HW1 1766   2.027   2.186   0.693 -0.5871 -0.7108  0.6650
  589SOL    HW2 1767   1.861   2.157   0.680 -1.0256  1.8462 -0.5365
  590SOL     OW 1768   2.083   0.367   0.245 -0.6238  0.7398  0.7441
  590SOL    HW1 1769   2.103   0.395   0.338 -1.4159  1.0009  1.7520
  590SOL    HW2 1770   2.154   0.316   0.194  0.8873 -1.1004  1.0618
  591SOL     OW 1771   1.843   2.135   1.892  0.4987 -0.2560 -0.2696
  591SOL    HW1 1772   1.855   2.182   1.805  0.5699 -0.9170  0.1589
  591SOL    HW2 1773   1.822   2.206   1.963 -0.5336  0.7161  1.1281
  592SOL     OW 1774   1.286   1.873   0.622  0.8292  0.1467 -0.1406
  592SOL    HW1 1775   1.346   1.790   0.616 -1.7526 -0.1391 -2.2013
  592SOL    HW2 1776   1.319   1.950   0.567 -0.4943  0.9902 -3.6243
  593SOL     OW 1777   0.958   2.485   0.404 -0.0015  0.2765  0.6128
  593SOL    HW1 1778   0.863   2.521   0.392 -1.8519 -2.4829 -0.6448
  593SOL    HW2 1779   0.963   2.385   0.386  0.2671  1.1740 -2.1366
  594SOL     OW 1780   2.833   0.346   1.821  0.7368  0.4635  0.0813
  594SOL    HW1 1781   2.865   0.248   1.828  2.1855  0.2094 -0.6306
  594SOL    HW2 1782   2.732   0.361   1.843  1.1524 -0.9947 -3.4164
  595SOL     OW 1783   2.568   0.891   0.409  0.3327 -0.0846 -0.3127
  595SOL    HW1 1784   2.588   0.824   0.336  3.1747 -0.4705  0.4365
  595SOL    HW2 1785   2.626   0.973   0.387  3.2394 -2.5784 -1.7460
  596SOL     OW 1786   0.814   0.391   0.910  0.0681 -0.3393 -0.8561
  596SOL    HW1 1787   0.825   0.290   0.910 -1.9513  1.4718  2.1035
  596SOL    HW2 1788   0.719   0.420   0.893 -1.0595  0.2255 -2.2367
  597SOL     OW 1789   2.257   1.756   3.005 -0.1069  0.5618  0.2442
  597SOL    HW1 1790   2.261   1.737   2.907 -0.5487 -0.6717 -0.3269
  597SOL    HW2 1791   2.160   1.752   3.037  2.8581  0.4585  0.6618
  598SOL     OW 1792   2.558   2.267   1.790  0.4294 -0.2177 -0.1720
  598SOL    HW1 1793   2.597   2.315   1.874 -0.5744 -0.7011 -0.3148
  598SOL    HW2 1794   2.456   2.285   1.782  2.4077  3.7576  1.1016
  599SOL     OW 1795   2.306   1.310   0.182  0.0861  0.2978  0.2257
  599SOL    HW1 1796   2.334   1.397   0.130  1.0653 -0.8826  0.2853
  599SOL    HW2 1797   2.314   1.224   0.126  0.6921 -0.4265  0.8413
  600SOL     OW 1798   0.700   2.866   2.921  0.5972  0.0587 -0.3716
  600SOL    HW1 1799   0.745   2.892   3.007 -0.7987 -2.5470  1.6619
  600SOL    HW2 1800   0.608   2.907   2.912 -0.2812 -0.2681  0.7154
  601SOL     OW 1801   1.614   0.826   0.363  0.0501 -0.7762  0.0489
  601SOL    HW1 1802   1.609   0.826   0.264 -0.5551  0.6085 -2.3216
  601SOL    HW2 1803   1.630   0.736   0.401 -1.7157 -1.3067  0.1913
  602SOL     OW 1804   2.495   0.686   2.231 -0.5871  0.1549  0.3519
  602SOL    HW1 1805   2.442   0.599   2.258  0.6276 -0.5980 -0.5414
  602SOL    HW2 1806   2.517   0.688   2.131 -2.6460  1.2381  1.2475
  603SOL     OW 1807   0.014   2.721   1.988 -0.2601 -0.4011 -0.3466
  603SOL    HW1 1808  -0.056   2.754   2.053 -1.1053  0.6583  0.2074
  603SOL    HW2 1809  -0.024   2.639   1.944  1.9110  0.3614 -1.2365
  604SOL     OW 1810   2.978   0.342   2.907 -0.1637 -0.2301  0.1629
  604SOL    HW1 1811   3.046   0.333   2.834 -2.7107  0.9630 -0.9790
  604SOL    HW2 1812   3.004   0.280   2.981  1.1105  1.3343 -0.4074
  605SOL     OW 1813   3.040   2.967   2.515 -0.0335 -0.0735  0.0114
  605SOL    HW1 1814   3.025   3.015   2.424  0.3684  1.0408 -0.5260
  605SOL    HW2 1815   3.122   2.907   2.501 -1.3756  0.1509  2.9841
  606SOL     OW 1816   2.866   1.999   0.278 -0.4686  0.3180  0.2985
  606SOL    HW1 1817   2.924   1.951   0.206  2.6691 -0.7761  0.2752
  606SOL    HW2 1818   2.776   2.028   0.241  1.1151 -0.7009  0.1428
  607SOL     OW 1819   2.029   0.247   2.820  0.4368  0.4693 -0.2524
  607SOL    HW1 1820   1.975   0.295   2.891  1.0234  2.0530 -1.3115
  607SOL    HW2 1821   2.000   0.284   2.728 -1.5555  0.9805  1.7624
  608SOL     OW 1822   2.117   1.288   2.521  0.1089 -0.2612  0.2634
  608SOL    HW1 1823   2.083   1.204   2.567 -1.9737  0.6843 -1.4940
  608SOL    HW2 1824   2.045   1.359   2.506  3.1390  0.9867  0.0025
  609SOL     OW 1825   3.062   0.475   1.177 -0.2353 -0.6813 -0.4300
  609SOL    HW1 1826   3.145   0.513   1.126 -1.1984 -2.0923  3.1140
  609SOL    HW2 1827   2.983   0.445   1.119 -1.1869 -0.7845  1.3391
  610SOL     OW 1828   0.428   2.740   0.200 -0.3803 -0.5884  0.1930
  610SOL    HW1 1829   0.514   2.793   0.207  0.4656  0.5315 -0.1134
  610SOL    HW2 1830   0.351   2.801   0.209  1.0231  0.3557  2.5051
  611SOL     OW 1831   2.005   1.078   2.634  0.3049  0.0622 -0.1173
  611SOL    HW1 1832   2.035   1.034   2.719 -2.9882 -0.7876 -3.8274
  611SOL    HW2 1833   2.021   1.019   2.554 -0.7526  1.6024 -2.8400
  612SOL     OW 1834   1.738   0.569   2.200  0.5694  0.1664  0.5623
  612SOL    HW1 1835   1.636   0.553   2.196 -0.7861 -4.4997 -0.2598
  612SOL    HW2 1836   1.788   0.524   2.122  0.3195  0.2730 -2.7628
  613SOL     OW 1837   1.257   1.549   0.180 -0.2237  0.2381  0.7233
  613SOL    HW1 1838   1.187   1.565   0.108 -0.2224 -2.2384  0.0621
  613SOL    HW2 1839   1.295   1.637   0.211 -2.6767  1.6737  1.2578
  614SOL     OW 1840   2.943   2.302   0.245 -0.4336 -0.4692  0.1902
  614SOL    HW1 1841   2.854   2.290   0.296 -2.2625 -0.8719 -1.5348
  614SOL    HW2 1842   2.970   2.397   0.241  2.2194  2.7641 -2.0366
  615SOL     OW 1843   2.278   1.271   2.305  0.2073 -0.6516  0.1417
  615SOL    HW1 1844   2.294   1.369   2.314  0.5668  0.6660  0.3515
  615SOL    HW2 1845   2.202   1.242   2.365 -0.1527 -0.0392  1.7453
  616SOL     OW 1846   0.651   2.913   0.247 -0.0123 -0.7588 -0.7390
  616SOL    HW1 1847   0.727   2.921   0.311 -1.0765  0.7797 -2.7313
  616SOL    HW2 1848   0.582   2.987   0.269 -2.8242  2.0011 -0.7230
  617SOL     OW 1849   0.543   2.543   0.023 -0.1522 -0.4039 -0.4671
  617SOL    HW1 1850   0.513   2.594   0.103 -0.9420 -1.4391  0.9658
  617SOL    HW2 1851   0.536   2.444   0.043  1.3445 -2.2589  0.5770
  618SOL     OW 1852   2.963   0.120   1.507  0.0782 -1.0258  0.3110
  618SOL    HW1 1853   2.986   0.106   1.605 -2.0290  3.3094 -0.0458
  618SOL    HW2 1854   3.018   0.196   1.476 -0.1532 -1.9157 -0.2417
  619SOL     OW 1855   2.499   2.359   2.300  0.3876  0.1019 -0.0134
  619SOL    HW1 1856   2.502   2.381   2.203 -0.3248  1.1273  1.6793
  619SOL    HW2 1857   2.524   2.264   2.320  4.1813 -0.8411 -0.0149
  620SOL     OW 1858   2.317   1.316   2.904  0.9603  0.2275 -0.4342
  620SOL    HW1 1859   2.348   1.345   2.815 -2.4049  1.9231  2.9528
  620SOL    HW2 1860   2.322   1.214   2.909  0.3148 -3.0204 -1.1194
  621SOL     OW 1861   2.207   0.360   0.907 -0.5660  0.5505  0.2182
  621SOL    HW1 1862   2.211   0.459   0.933 -0.6248 -1.4585  0.4774
  621SOL    HW2 1863   2.145   0.350   0.826 -1.2691  1.2094  0.5227
  622SOL     OW 1864   0.217   0.863   0.071 -0.4339 -0.7458 -0.3646
  622SOL    HW1 1865   0.153   0.806   0.016  0.9820 -1.1276  0.2686
  622SOL    HW2 1866   0.221   0.831   0.167  1.5578  1.1385  0.7472
  623SOL     OW 1867   1.731   2.303   2.082 -0.5410  0.0454 -0.0367
  623SOL    HW1 1868   1.744   2.214   2.139  1.0578  0.3562  2.2838
  623SOL    HW2 1869   1.725   2.384   2.146 -1.4387  0.9715  0.0083
  624SOL     OW 1870   1.541   2.730   1.149  0.7432 -0.2054  0.1098
  624SOL    HW1 1871   1.530   2.656   1.219  0.1101  0.7536  0.5260
  624SOL    HW2 1872   1.525   2.689   1.057 -0.2326 -4.9151  0.8798
  625SOL     OW 1873   0.052   2.715   3.026 -0.1668  0.2023  0.1359
  625SOL    HW1 1874   0.140   2.677   2.988  1.3907  0.0682 -1.7933
  625SOL    HW2 1875  -0.009   2.633   3.051  0.0263 -0.4677  0.9057
  626SOL     OW 1876   2.476   0.428   0.163 -0.0457 -0.4982 -0.4489
  626SOL    HW1 1877   2.438   0.511   0.113 -0.9020 -0.2495 -1.3618
  626SOL    HW2 1878   2.413   0.354   0.155 -1.0077  0.8561  2.7802
  627SOL     OW 1879   0.859   0.014   2.063 -0.3304 -0.1328 -0.3520
  627SOL    HW1 1880   0.796  -0.030   2.130 -1.0878 -2.9218  2.1993
  627SOL    HW2 1881   0.822   0.103   2.031  0.2257  0.6352  1.6211
  628SOL     OW 1882   1.019   0.832   1.411  0.4773 -0.0159  0.0075
  628SOL    HW1 1883   0.948   0.849   1.483  1.7664 -1.5800  1.7619
  628SOL    HW2 1884   1.003   0.745   1.366  1.2641 -1.1505 -0.2635
  629SOL     OW 1885   2.318   1.683   0.695 -0.0156 -0.5537 -0.3245
  629SOL    HW1 1886   2.256   1.684   0.617  0.7550 -0.8902 -1.3320
  629SOL    HW2 1887   2.386   1.605   0.687 -1.3944  3.3336  1.8983
  630SOL     OW 1888   2.992   3.093   2.266  0.0853  0.0207  0.0919
  630SOL    HW1 1889   3.084   3.137   2.258 -1.2582  0.5402  0.2079
  630SOL    HW2 1890   2.930   3.131   2.198 -0.0686 -1.4259 -2.3714
  631SOL     OW 1891   1.856   0.154   0.589 -0.6650 -0.0805  0.3541
  631SOL    HW1 1892   1.879   0.054   0.608  0.7559  1.6985  0.1205
  631SOL    HW2 1893   1.908   0.224   0.643 -0.7429 -0.5246  1.5050
  632SOL     OW 1894   1.531   2.406   0.175  0.2119 -0.1494 -0.0360
  632SOL    HW1 1895   1.494   2.354   0.094 -2.0089  0.2696 -0.1904
  632SOL    HW2 1896   1.577   2.495   0.146  1.2294  1.8333 -1.8489
  633SOL     OW 1897   0.353   3.038   0.057 -0.3515 -0.2303  0.3677
  633SOL    HW1 1898   0.411   3.037  -0.030  1.4126  1.2747 -2.0977
  633SOL    HW2 1899   0.315   2.947   0.080 -1.1025 -0.8724  0.4992
  634SOL     OW 1900   2.255   2.697   0.980  0.1145 -0.6495  0.8132
  634SOL    HW1 1901   2.245   2.754   0.900  0.3723 -1.4205  0.3687
  634SOL    HW2 1902   2.275   2.749   1.063 -1.6937 -1.2540 -1.6086
  635SOL     OW 1903   2.607   2.776   1.515 -0.3224 -0.2218  0.4482
  635SOL    HW1 1904   2.657   2.717   1.574 -2.2262  1.8995  0.7116
  635SOL    HW2 1905   2.656   2.865   1.485 -1.9534 -3.2193 -1.7979
  636SOL     OW 1906   1.924   0.246   1.252  0.2579  0.2854  0.0095
  636SOL    HW1 1907   1.888   0.322   1.309 -0.2780  0.5469 -2.9711
  636SOL    HW2 1908   1.899   0.161   1.303  3.6899 -0.6035  0.5373
  637SOL     OW 1909   1.416   2.386   2.544  0.0221 -0.2637 -0.2709
  637SOL    HW1 1910   1.368   2.443   2.475 -0.0805 -0.3514  0.1533
  637SOL    HW2 1911   1.501   2.427   2.591 -1.9116  0.7942 -0.9571
  638SOL     OW 1912   0.831   0.118   0.917  0.4952 -0.3319 -0.1387
  638SOL    HW1 1913   0.773   0.077   0.991  1.6424  0.1679  0.2291
  638SOL    HW2 1914   0.911   0.054   0.896  0.1312  0.6002 -1.4462
  639SOL     OW 1915   0.456   2.148   2.135 -0.1979 -0.0658  0.3009
  639SOL    HW1 1916   0.540   2.117   2.184 -0.5744 -0.5528 -0.2816
  639SOL    HW2 1917   0.373   2.107   2.171 -0.1600 -1.5407  1.9943
  640SOL     OW 1918   2.621   0.135   2.456 -0.4535 -0.6251  0.3257
  640SOL    HW1 1919   2.674   0.217   2.417 -0.2900  0.1718  0.1470
  640SOL    HW2 1920   2.558   0.163   2.532 -1.7522  1.4098 -0.9760
  641SOL     OW 1921   2.718   1.131   0.990  0.1867 -0.3309  0.0354
  641SOL    HW1 1922   2.818   1.134   1.020 -0.6904 -0.2745  3.4404
  641SOL    HW2 1923   2.705   1.176   0.899 -0.1335  1.2260  0.2951
  642SOL     OW 1924   0.987   2.142   0.808  0.4855 -0.0612 -0.6208
  642SOL    HW1 1925   0.927   2.117   0.730 -2.1381 -4.6774 -1.5233
  642SOL    HW2 1926   1.074   2.090   0.804  4.1654  0.6965  0.6365
  643SOL     OW 1927   1.691   1.502   1.716  0.1752 -0.4083  0.0255
  643SOL    HW1 1928   1.758   1.575   1.736 -1.5031 -0.9891  0.7124
  643SOL    HW2 1929   1.599   1.547   1.724  3.2434 -1.3915  0.1533
  644SOL     OW 1930   2.159   1.650   0.491 -0.0701  0.1099  0.0675
  644SOL    HW1 1931   2.061   1.682   0.486 -0.2962  1.2831  2.2213
  644SOL    HW2 1932   2.163   1.548   0.515 -1.0483  0.5981 -4.7423
  645SOL     OW 1933   1.214   1.993   2.616 -0.0116  0.2102 -0.2939
  645SOL    HW1 1934   1.132   1.939   2.584 -1.5891  2.8721 -1.0089
  645SOL    HW2 1935   1.193   2.057   2.696  1.1785 -0.3907 -1.0646
  646SOL     OW 1936   1.992   0.540   0.065  0.0278  0.1640 -0.3323
  646SOL    HW1 1937   2.025   0.472   0.138  0.5009  0.3758 -1.0152
  646SOL    HW2 1938   2.072   0.574   0.015  0.4628 -1.3036 -0.7713
  647SOL     OW 1939   0.475   2.904   2.059 -0.1840 -0.0603 -0.0533
  647SOL    HW1 1940   0.393   2.862   2.016 -0.2515  2.1142  1.8000
  647SOL    HW2 1941   0.475   3.003   2.031  0.9574  0.2495  1.9986
  648SOL     OW 1942   2.811   1.902   0.970 -0.2363  0.4117 -0.2002
  648SOL    HW1 1943   2.764   1.881   0.882  0.6295  2.7574 -0.4533
  648SOL    HW2 1944   2.764   1.974   1.024  0.9383 -0.7260  1.8755
  649SOL     OW 1945   1.420   2.219   2.749 -0.2225  0.1228  0.2662
  649SOL    HW1 1946   1.409   2.293   2.677 -2.5864  0.2008  2.4731
  649SOL    HW2 1947   1.392   2.250   2.844  1.5382 -1.7414  0.6336
  650SOL     OW 1948   0.784   1.780   2.810 -0.3555 -0.0485 -0.5029
  650SOL    HW1 1949   0.852   1.717   2.756 -3.8711  0.6179  0.9884
  650SOL    HW2 1950   0.692   1.739   2.807  0.0669  1.1804  1.6649
  651SOL     OW 1951   1.659   1.848   2.930 -0.5806 -0.0815  0.0589
  651SOL    HW1 1952   1.646   1.924   2.865  1.7842  2.3353  2.4814
  651SOL    HW2 1953   1.600   1.865   3.016 -0.4343 -2.8516  1.5127
  652SOL     OW 1954   2.720   0.946   1.605  0.4873 -0.6813 -0.4098
  652SOL    HW1 1955   2.649   1.015   1.630 -0.2878 -2.2881 -0.4591
  652SOL    HW2 1956   2.685   0.869   1.545  2.5018  0.3945 -0.0412
  653SOL     OW 1957   1.898   2.407   2.586 -0.3403 -0.1986  0.5630
  653SOL    HW1 1958   1.919   2.380   2.485  0.4522  1.2388 -1.1543
  653SOL    HW2 1959   1.979   2.442   2.635  2.7372 -1.4307  1.1826
  654SOL     OW 1960   2.649   0.132   1.658 -0.5041  0.5225 -0.0457
  654SOL    HW1 1961   2.567   0.100   1.609 -0.4172  0.2553  0.6539
  654SOL    HW2 1962   2.628   0.202   1.729 -0.8099  0.6436 -0.0417
  655SOL     OW 1963   0.666   2.266   0.748 -0.4846  0.1627  0.2632
  655SOL    HW1 1964   0.722   2.288   0.826  1.2535  3.0344 -0.4477
  655SOL    HW2 1965   0.712   2.193   0.696 -1.2296  3.3137  2.4542
  656SOL     OW 1966   2.969   2.390   0.917  0.3031  0.3976 -0.5691
  656SOL    HW1 1967   3.014   2.299   0.924 -0.5773  0.5613 -0.2841
  656SOL    HW2 1968   2.986   2.438   0.824  0.0396 -2.2881  2.1012
  657SOL     OW 1969   2.875   1.419   1.036  0.6813 -0.8561  0.3225
  657SOL    HW1 1970   2.909   1.332   0.989  0.9495  2.2695 -0.2312
  657SOL    HW2 1971   2.826   1.482   0.974  4.2059  0.1446  0.4264
  658SOL     OW 1972   0.600   1.167   1.233 -0.6273  0.0903  0.3719
  658SOL    HW1 1973   0.674   1.133   1.177 -0.4025 -0.3524 -1.0033
  658SOL    HW2 1974   0.641   1.192   1.327 -2.1772 -0.0860 -1.5084
  659SOL     OW 1975   1.755   2.824   2.056  0.1552 -0.5407  0.3165
  659SOL    HW1 1976   1.712   2.743   2.108 -0.7711  1.1136 -0.4364
  659SOL    HW2 1977   1.702   2.909   2.074  2.4344  1.0965 -0.6453
  660SOL     OW 1978   1.139   0.531   0.378  0.3395  0.6925  0.7090
  660SOL    HW1 1979   1.202   0.592   0.431 -0.1822  3.5274  2.2991
  660SOL    HW2 1980   1.116   0.446   0.428  0.5906 -1.8967  2.0556
  661SOL     OW 1981   1.067   3.080   0.854  0.1473  0.3513 -0.0488
  661SOL    HW1 1982   1.115   3.167   0.875  0.3077 -1.5618  1.2270
  661SOL    HW2 1983   1.086   2.999   0.912  0.7277 -1.2793  0.1654
  662SOL     OW 1984   1.953   0.355   2.587  0.4314  0.3161  0.1622
  662SOL    HW1 1985   1.950   0.284   2.516 -0.7610  3.2671  0.9608
  662SOL    HW2 1986   2.013   0.434   2.565 -0.5129 -1.8164  3.7957
  663SOL     OW 1987   1.346   1.311   2.909 -0.7933 -0.1716 -0.5219
  663SOL    HW1 1988   1.313   1.331   2.817 -0.0681 -1.9769  1.8310
  663SOL    HW2 1989   1.444   1.338   2.920  0.7763  0.8682 -0.2107
  664SOL     OW 1990   0.855   0.340   0.052 -0.4698  0.7853  0.4017
  664SOL    HW1 1991   0.783   0.379  -0.005  1.1198 -0.3279  0.3055
  664SOL    HW2 1992   0.821   0.261   0.110  2.0056  1.5577  0.1280
  665SOL     OW 1993   0.431   0.528   2.741 -0.0060  0.2696 -0.5297
  665SOL    HW1 1994   0.532   0.550   2.757  1.1471  0.1558  2.3753
  665SOL    HW2 1995   0.372   0.608   2.775 -1.5531  1.4422 -2.7706
  666SOL     OW 1996   1.061   1.152   2.047 -0.1815  0.2159 -0.1512
  666SOL    HW1 1997   1.122   1.166   2.127 -3.1390  0.6731 -1.4779
  666SOL    HW2 1998   0.990   1.083   2.073 -0.4242  0.6242  2.9798
  667SOL     OW 1999   0.923   0.932   2.204  0.4231 -0.0260 -0.3958
  667SOL    HW1 2000   0.909   0.845   2.154 -1.5383  0.7255  0.3577
  667SOL    HW2 2001   0.981   0.906   2.282 -1.5748 -0.2505  0.6187
  668SOL     OW 2002   2.822   0.528   1.394  0.1111  0.2210 -0.1976
  668SOL    HW1 2003   2.904   0.546   1.335 -4.1586  0.0091 -0.4669
  668SOL    HW2 2004   2.779   0.613   1.433 -1.5149 -2.3453 -1.8690
  669SOL     OW 2005   0.860   1.950   0.104  0.7475 -0.4172 -0.1551
  669SOL    HW1 2006   0.864   1.857   0.064  0.3900 -0.8705 -0.6309
  669SOL    HW2 2007   0.960   1.979   0.099 -0.3525  0.5885 -1.4200
  670SOL     OW 2008   0.237   2.056   2.273 -0.2401  0.7135 -0.0704
  670SOL    HW1 2009   0.195   1.961   2.264 -1.6907 -1.0510 -0.3536
  670SOL    HW2 2010   0.277   2.067   2.368 -0.2979 -1.3403  2.8152
  671SOL     OW 2011   0.094   1.271   1.137  0.2537  0.6075  0.0494
  671SOL    HW1 2012   0.189   1.236   1.113 -1.5179  1.6776  0.0887
  671SOL    HW2 2013   0.098   1.309   1.230  3.0737 -0.1129  0.5368
  672SOL     OW 2014   0.331   1.121   2.393  0.0638  0.0499 -0.7900
  672SOL    HW1 2015   0.336   1.214   2.347 -0.4345  3.9972 -0.1360
  672SOL    HW2 2016   0.317   1.127   2.496  1.4220  0.8704 -1.8575
  673SOL     OW 2017   2.803   2.219   1.677  0.0845 -0.0290  0.3332
  673SOL    HW1 2018   2.890   2.267   1.710  0.9438 -0.1126  0.7502
  673SOL    HW2 2019   2.726   2.243   1.739 -2.2951  0.1994  0.2093
  674SOL     OW 2020   2.975   2.511   1.886  0.2091  0.3950 -0.0055
  674SOL    HW1 2021   3.033   2.440   1.840  2.1886  0.5146 -0.6576
  674SOL    HW2 2022   2.955   2.476   1.979 -3.3385  1.1855  3.4889
  675SOL     OW 2023   0.165   1.052   0.353  0.5741 -0.8489 -0.3586
  675SOL    HW1 2024   0.196   0.955   0.346 -1.0122 -0.6508 -0.6875
  675SOL    HW2 2025   0.154   1.083   0.451 -1.7323  1.2935 -0.7797
  676SOL     OW 2026   2.906   1.508   1.276 -0.0226  0.0614 -0.0470
  676SOL    HW1 2027   2.866   1.450   1.346 -1.1965 -2.2670  1.2708
  676SOL    HW2 2028   2.890   1.479   1.178  0.5518  0.4884  1.7236
  677SOL     OW 2029   1.770   1.315   1.556  0.5720  0.3484 -0.0860
  677SOL    HW1 2030   1.792   1.235   1.612  1.8514 -1.5928 -2.4996
  677SOL    HW2 2031   1.740   1.397   1.612  4.8786  1.4967  0.9023
  678SOL     OW 2032   2.270   2.357   1.770  0.3295  0.5021  0.3551
  678SOL    HW1 2033   2.279   2.454   1.740 -1.8155  1.0433  1.1711
  678SOL    HW2 2034   2.249   2.357   1.871  2.2962 -0.5249 -0.0219
  679SOL     OW 2035   0.183   2.867   0.184  0.3498 -0.1750  0.5748
  679SOL    HW1 2036   0.126   2.833   0.106 -1.9268  2.7172  0.7087
  679SOL    HW2 2037   0.127   2.928   0.246  0.5986 -1.2037 -0.1178
  680SOL     OW 2038   0.903   1.276   0.938  0.1417  0.2290  0.0490
  680SOL    HW1 2039   0.995   1.260   0.902  2.1086  2.6686  1.2584
  680SOL    HW2 2040   0.875   1.375   0.933  3.0344 -0.0492  1.5602
  681SOL     OW 2041   0.702   2.387   1.626 -0.3993  0.1232  0.2118
  681SOL    HW1 2042   0.762   2.386   1.712  0.0742  0.0019 -2.1663
  681SOL    HW2 2043   0.738   2.307   1.571  2.7704 -0.1595  0.2759
  682SOL     OW 2044   0.091   1.808   2.262 -0.5334  0.3490 -0.3697
  682SOL    HW1 2045   0.074   1.706   2.248 -0.0659  0.2549  0.7983
  682SOL    HW2 2046   0.056   1.847   2.174  0.2614 -0.1396 -0.5978
  683SOL     OW 2047   2.537   0.761   1.966  0.4624 -0.0874  0.1033
  683SOL    HW1 2048   2.475   0.823   2.015  0.4043 -1.1596 -0.1797
  683SOL    HW2 2049   2.620   0.804   1.932 -0.9028 -1.0510 -2.2779
  684SOL     OW 2050   2.454   1.953   2.033  0.0391 -0.4157  0.2726
  684SOL    HW1 2051   2.484   1.857   2.049  2.0341 -0.3534  0.1263
  684SOL    HW2 2052   2.462   1.986   1.935  1.5316 -0.0588  0.8637
  685SOL     OW 2053   1.604   1.387   2.877  0.6110 -0.3969 -0.4337
  685SOL    HW1 2054   1.690   1.329   2.877 -0.9775 -2.8322 -0.7569
  685SOL    HW2 2055   1.607   1.463   2.944 -1.7455  0.8536  1.3802
  686SOL     OW 2056   2.845   2.644   1.675  0.0082  0.2745 -0.2502
  686SOL    HW1 2057   2.872   2.588   1.591 -1.3215  0.8716  2.1208
  686SOL    HW2 2058   2.863   2.585   1.753  3.0499  0.6502 -2.4921
  687SOL     OW 2059   2.470   2.760   0.450 -0.0228  0.0207  0.5734
  687SOL    HW1 2060   2.487   2.853   0.484 -0.7885 -0.4154  2.5917
  687SOL    HW2 2061   2.412   2.759   0.367 -0.0758  3.3967 -1.7175
  688SOL     OW 2062   1.256   2.517   2.388 -0.3481  0.0408  0.2251
  688SOL    HW1 2063   1.172   2.482   2.434  1.0157 -0.6735 -1.4021
  688SOL    HW2 2064   1.244   2.508   2.288 -1.2146  2.5949 -0.7107
  689SOL     OW 2065   2.343   2.469   2.478 -0.3615  0.5946 -0.8445
  689SOL    HW1 2066   2.405   2.425   2.407  0.6719 -1.4365  0.8906
  689SOL    HW2 2067   2.380   2.563   2.489  1.7131  0.4113  2.0750
  690SOL     OW 2068   3.009   1.250   2.243 -0.1498  0.4486 -0.0712
  690SOL    HW1 2069   2.924   1.216   2.196  1.2317  0.8160  0.6381
  690SOL    HW2 2070   3.090   1.189   2.230  2.9824  1.5823 -0.2153
  691SOL     OW 2071   2.488   1.478   0.650  0.0359 -0.1116  0.2439
  691SOL    HW1 2072   2.530   1.542   0.582 -0.8382  0.5443 -1.4389
  691SOL    HW2 2073   2.555   1.405   0.680 -1.0357 -1.2137  1.8103
  692SOL     OW 2074   0.551   2.629   2.639  0.0169  0.4275 -0.1885
  692SOL    HW1 2075   0.563   2.586   2.727 -3.0145 -1.1426 -0.7410
  692SOL    HW2 2076   0.584   2.570   2.560 -0.4167  3.0688 -1.4944
  693SOL     OW 2077   0.390   1.108   1.094 -0.5857 -0.2423  0.0358
  693SOL    HW1 2078   0.385   1.196   1.045 -0.5941  2.2307  3.0710
  693SOL    HW2 2079   0.448   1.110   1.180  0.0788 -2.2751 -1.3112
  694SOL     OW 2080   0.574   0.216   2.242 -0.5056 -0.6106  0.2654
  694SOL    HW1 2081   0.558   0.130   2.191  0.4409  0.0370 -0.6886
  694SOL    HW2 2082   0.589   0.207   2.343 -1.1675  0.3290 -1.7625
  695SOL     OW 2083   2.275   0.261   1.535 -0.8452 -0.0320  0.7387
  695SOL    HW1 2084   2.198   0.198   1.559  1.2056  1.2221 -0.3596
  695SOL    HW2 2085   2.336   0.216   1.466 -3.3187 -0.8908 -0.4831
  696SOL     OW 2086   2.692   2.877   2.170 -0.0500 -0.5710 -0.4061
  696SOL    HW1 2087   2.652   2.955   2.222 -3.9211 -0.9178  0.7006
  696SOL    HW2 2088   2.627   2.848   2.099  0.0224 -1.1270 -2.0040
  697SOL     OW 2089   2.278   0.259   0.094 -0.2922  0.1171  0.4377
  697SOL    HW1 2090   2.269   0.307   0.002 -0.1790  0.5228 -0.3190
  697SOL    HW2 2091   2.306   0.164   0.082 -1.8534 -1.0522 -0.6566
  698SOL     OW 2092   2.937   2.091   0.513  0.1336 -0.0837 -0.0657
  698SOL    HW1 2093   2.873   2.169   0.527 -1.2665  2.7376  0.3376
  698SOL    HW2 2094   2.922   2.051   0.422  0.5006 -0.9689 -1.4564
  699SOL     OW 2095   2.692   1.101   2.746 -0.1928 -0.3124 -0.0790
  699SOL    HW1 2096   2.687   1.173   2.821  0.8228 -0.0039 -2.6360
  699SOL    HW2 2097   2.681   1.159   2.659  0.3079  0.2816 -2.2571
  700SOL     OW 2098   1.008   2.550   0.654 -0.2324 -0.0426 -0.7736
  700SOL    HW1 2099   0.983   2.521   0.559  0.2580 -0.9739 -1.3514
  700SOL    HW2 2100   0.945   2.624   0.682  0.5836 -0.7919  2.0965
  701SOL     OW 2101   1.239   1.133   0.566 -0.4377 -0.4933  0.0024
  701SOL    HW1 2102   1.297   1.165   0.486 -1.7580 -0.5827 -1.9638
  701SOL    HW2 2103   1.159   1.081   0.528 -0.6340 -1.8220  0.0374
  702SOL     OW 2104   1.698   1.643   1.378 -0.3132 -0.6686 -0.2056
  702SOL    HW1 2105   1.595   1.639   1.386 -3.9108  0.9747  1.1631
  702SOL    HW2 2106   1.729   1.734   1.344 -0.2109  0.4874 -2.0040
  703SOL     OW 2107   1.578   0.559   0.814  0.0550 -0.3242  0.3131
  703SOL    HW1 2108   1.659   0.599   0.762 -2.8856 -2.5613  0.5340
  703SOL    HW2 2109   1.609   0.512   0.894  0.0844 -0.5551  1.9841
  704SOL     OW 2110   2.557   3.055   0.832 -0.2845 -1.1625 -0.5064
  704SOL    HW1 2111   2.506   3.142   0.827 -2.0602 -0.6921  2.3471
  704SOL    HW2 2112   2.533   3.017   0.923 -1.2292 -0.5343 -1.7284
  705SOL     OW 2113   3.010   0.671   0.618 -0.1709  0.6443  0.0777
  705SOL    HW1 2114   2.983   0.698   0.525  0.5249  0.7940 -3.3149
  705SOL    HW2 2115   2.962   0.728   0.690  2.3750 -2.3672  1.7391
  706SOL     OW 2116   1.383   0.642   3.076  0.1263 -0.2906  0.4038
  706SOL    HW1 2117   1.376   0.667   2.977  0.2435  1.7353 -1.5012
  706SOL    HW2 2118   1.381   0.537   3.093 -0.0020  1.7256  1.4647
  707SOL     OW 2119   2.243   3.064   2.288 -0.0185  0.2269 -0.2632
  707SOL    HW1 2120   2.169   3.105   2.225  1.0127 -2.1795  2.5470
  707SOL    HW2 2121   2.236   2.960   2.292  1.7320 -2.4739 -1.4668
  708SOL     OW 2122   0.428   2.664   1.695  0.0133 -0.0258  0.4226
  708SOL    HW1 2123   0.370   2.656   1.610  0.6044 -1.1392 -0.6157
  708SOL    HW2 2124   0.528   2.647   1.671  1.9339 -2.4846  0.4949
  709SOL     OW 2125   1.708   0.527   2.560 -0.6027  0.4157  0.8583
  709SOL    HW1 2126   1.779   0.454   2.568 -0.6753  2.9897 -0.2185
  709SOL    HW2 2127   1.745   0.600   2.497  2.0509 -2.6602 -0.5781
  710SOL     OW 2128   2.582   1.037   1.195 -0.3226  0.6156 -0.1257
  710SOL    HW1 2129   2.614   0.940   1.202  0.7226 -0.4898 -0.9954
  710SOL    HW2 2130   2.626   1.080   1.115 -1.5410  2.3780  0.3966
  711SOL     OW 2131   0.396   1.916   2.490  0.1895 -0.6428 -0.4034
  711SOL    HW1 2132   0.308   1.867   2.518  1.6086  2.4008 -2.2964
  711SOL    HW2 2133   0.406   2.008   2.530  0.2602  0.7557  2.3383
  712SOL     OW 2134   2.993   0.941   3.001  0.5177  0.1475 -0.0073
  712SOL    HW1 2135   2.898   0.951   3.005 -1.3400 -1.4899 -1.9269
  712SOL    HW2 2136   3.036   1.026   2.964  3.2354  0.2279 -2.1651
  713SOL     OW 2137   2.691   3.090   0.172  0.3856 -0.2138  0.0325
  713SOL    HW1 2138   2.661   2.993   0.163 -0.6094 -1.6093 -0.0347
  713SOL    HW2 2139   2.659   3.137   0.087  3.0818 -1.9334 -0.5153
  714SOL     OW 2140   1.445   0.887   1.672 -0.5650  0.0023  0.2580
  714SOL    HW1 2141   1.347   0.863   1.681 -0.6110 -0.2311  0.8770
  714SOL    HW2 2142   1.464   0.977   1.714  1.0772 -1.4058  0.5255
  715SOL     OW 2143   0.604   0.619   0.625 -0.0477  0.1331 -0.1621
  715SOL    HW1 2144   0.687   0.668   0.668 -0.4287  1.6037 -4.7642
  715SOL    HW2 2145   0.635   0.579   0.539 -0.1705 -1.5996 -0.3442
  716SOL     OW 2146   2.423   0.224   2.658 -0.5698 -0.4490  0.1994
  716SOL    HW1 2147   2.432   0.320   2.625  1.6867  1.4001  0.5942
  716SOL    HW2 2148   2.342   0.184   2.614  2.1698 -0.2192 -0.7380
  717SOL     OW 2149   1.224   1.098   1.487 -0.6597  0.1439  0.0109
  717SOL    HW1 2150   1.318   1.074   1.465 -0.8471 -0.4662  0.4425
  717SOL    HW2 2151   1.187   1.173   1.430 -2.6707 -2.6090 -0.4528
  718SOL     OW 2152   0.577   0.627   0.123 -0.2028  0.1843 -0.1001
  718SOL    HW1 2153   0.658   0.660   0.175 -0.2554 -1.8020 -2.0651
  718SOL    HW2 2154   0.515   0.576   0.185 -2.2524  2.6398 -0.4591
  719SOL     OW 2155   2.732   3.018   2.552 -0.0121  0.1912 -0.0120
  719SOL    HW1 2156   2.708   3.102   2.500  0.7202 -1.1348 -1.1528
  719SOL    HW2 2157   2.799   2.957   2.505  1.2314 -2.0854  0.7638
  720SOL     OW 2158   1.854   0.454   1.993 -0.2038 -0.0665 -0.1617
  720SOL    HW1 2159   1.910   0.541   1.979 -0.3186  2.1946 -0.8328
  720SOL    HW2 2160   1.823   0.425   1.899 -1.3225  1.4294  3.9098
  721SOL     OW 2161   3.023   2.555   0.731 -0.1855 -0.1710  0.5262
  721SOL    HW1 2162   2.971   2.626   0.676 -2.8207  1.4963 -2.3502
  721SOL    HW2 2163   3.099   2.514   0.683 -2.4664  1.2316  2.6664
  722SOL     OW 2164   1.382   1.508   1.902 -0.0304  0.3585  0.2407
  722SOL    HW1 2165   1.364   1.436   1.835  1.9761 -0.7870  0.2262
  722SOL    HW2 2166   1.297   1.569   1.902 -1.3463 -0.5236  2.3656
  723SOL     OW 2167   1.100   0.661   0.774 -0.5374 -0.6112  0.2358
  723SOL    HW1 2168   1.195   0.678   0.808 -0.4607 -0.0165 -1.5711
  723SOL    HW2 2169   1.093   0.559   0.762 -0.2373 -2.1306  1.2661
  724SOL     OW 2170   2.915   2.373   2.108 -0.0630  0.1108  0.2709
  724SOL    HW1 2171   2.890   2.439   2.186  2.5622  0.1611  0.6431
  724SOL    HW2 2172   2.952   2.289   2.148 -2.4471 -1.4515 -2.0994
  725SOL     OW 2173   2.792   0.869   1.867 -0.4668  0.0485 -0.0680
  725SOL    HW1 2174   2.767   0.884   1.772  0.3121 -1.1530 -1.2665
  725SOL    HW2 2175   2.871   0.807   1.884  0.9400 -0.7988  0.1959
  726SOL     OW 2176   2.004   1.550   2.748  0.0363  0.0228  0.7500
  726SOL    HW1 2177   1.961   1.488   2.679 -0.0134  1.0913 -0.7445
  726SOL    HW2 2178   1.950   1.637   2.758 -1.1732 -0.4997 -2.1076
  727SOL     OW 2179   1.847   0.770   0.074 -0.5720  0.1725  0.3934
  727SOL    HW1 2180   1.747   0.757   0.077  0.4407 -1.7273 -0.3529
  727SOL    HW2 2181   1.886   0.676   0.061  0.2673  1.1881 -0.4404
  728SOL     OW 2182   1.761   1.404   0.723 -0.1671  0.0357 -0.3158
  728SOL    HW1 2183   1.849   1.415   0.769  0.7774 -0.6319  0.9813
  728SOL    HW2 2184   1.767   1.391   0.625  0.6075 -0.4461 -0.6225
  729SOL     OW 2185   2.053   1.286   1.457  0.5100 -0.1246 -0.2116
  729SOL    HW1 2186   1.987   1.228   1.402  3.3928  0.4737  1.4179
  729SOL    HW2 2187   2.010   1.373   1.488 -0.9417 -0.4360  2.2831
  730SOL     OW 2188   0.325   1.753   2.011  0.5608  0.3011 -0.3924
  730SOL    HW1 2189   0.306   1.813   1.928 -0.0091  0.4641  0.6276
  730SOL    HW2 2190   0.334   1.651   1.994  1.5239 -1.0378 -2.7617
  731SOL     OW 2191   1.039   0.699   3.041  0.3403 -0.3060  0.3578
  731SOL    HW1 2192   1.069   0.629   3.110  1.5223 -0.7796 -0.8137
  731SOL    HW2 2193   0.963   0.757   3.071  0.5113  2.8759  1.0256
  732SOL     OW 2194   0.259   0.104   1.851 -0.1441 -0.3772 -0.1506
  732SOL    HW1 2195   0.285   0.148   1.761  0.3151 -0.4541  0.7643
  732SOL    HW2 2196   0.184   0.037   1.839  0.6640 -0.1410 -1.1809
  733SOL     OW 2197   0.476   1.687   0.067  0.8923 -0.1351  0.0623
  733SOL    HW1 2198   0.566   1.652   0.096 -0.1037 -0.3010  0.4011
  733SOL    HW2 2199   0.455   1.777   0.115 -0.6816 -1.2840  2.0522
  734SOL     OW 2200   1.465   1.692   0.557  0.0705 -0.0006  0.3862
  734SOL    HW1 2201   1.441   1.641   0.644  2.2734  1.2861  1.2999
  734SOL    HW2 2202   1.507   1.632   0.486  1.9857 -0.3457 -1.1052
  735SOL     OW 2203   1.672   1.217   0.887  0.1310 -0.2412 -0.1498
  735SOL    HW1 2204   1.606   1.160   0.837 -0.3629  0.1082  0.2882
  735SOL    HW2 2205   1.694   1.294   0.824 -2.0013  0.5895  4.4762
  736SOL     OW 2206   0.226   2.027   2.927  0.2299 -0.1788  0.6170
  736SOL    HW1 2207   0.239   2.099   2.995  0.0282  1.0821  0.1803
  736SOL    HW2 2208   0.188   2.062   2.838 -2.2275 -1.3604 -1.2990
  737SOL     OW 2209   0.313   1.194   2.715  0.0017  0.4432  0.0836
  737SOL    HW1 2210   0.248   1.273   2.687 -0.2782  1.7963 -1.2147
  737SOL    HW2 2211   0.389   1.236   2.768 -0.3980  1.9070  1.1091
  738SOL     OW 2212   1.606   1.928   0.873  0.4265 -0.0986  0.4117
  738SOL    HW1 2213   1.533   1.976   0.924 -3.2227  0.1346  0.0311
  738SOL    HW2 2214   1.674   1.876   0.931  3.9898  0.2482  1.1153
  739SOL     OW 2215   1.557   3.093   1.823 -0.6900 -0.4528 -0.0761
  739SOL    HW1 2216   1.469   3.043   1.830  0.4444 -1.0098  2.8604
  739SOL    HW2 2217   1.590   3.126   1.914  2.6813  1.2824  0.2929
  740SOL     OW 2218   2.272   2.600   1.652  0.2336  0.1388 -0.5100
  740SOL    HW1 2219   2.174   2.606   1.637 -0.1683  1.5624 -2.0856
  740SOL    HW2 2220   2.323   2.626   1.567 -1.2004 -1.1320  0.9632
  741SOL     OW 2221   1.950   3.015   0.176 -0.0701 -0.0757 -0.0581
  741SOL    HW1 2222   1.944   3.104   0.226  0.7170  2.5248 -3.4289
  741SOL    HW2 2223   1.881   2.947   0.218  1.8708  1.4540 -0.0582
  742SOL     OW 2224   0.587   2.255   0.318 -0.5344  0.3849 -0.1663
  742SOL    HW1 2225   0.564   2.245   0.218  0.8973  1.1429 -1.0423
  742SOL    HW2 2226   0.679   2.215   0.331  0.8029 -0.3910  2.2783
  743SOL     OW 2227   3.058   1.934   1.987  0.1878 -0.3532  0.2136
  743SOL    HW1 2228   2.961   1.905   1.963 -2.5319 -0.9414 -1.0084
  743SOL    HW2 2229   3.122   1.907   1.910 -2.1096 -1.1892 -0.9913
  744SOL     OW 2230   1.753   2.131   0.562  0.1033  0.0974  0.0442
  744SOL    HW1 2231   1.746   2.153   0.458  1.6119  0.0527 -1.2755
  744SOL    HW2 2232   1.718   2.037   0.583  0.4550 -1.7891  1.7069
  745SOL     OW 2233   3.081   1.553   2.256  0.1813 -0.2401 -0.0062
  745SOL    HW1 2234   3.077   1.459   2.221 -1.8104 -0.4235 -3.0835
  745SOL    HW2 2235   2.990   1.586   2.287  0.0432 -0.8646  0.5942
  746SOL     OW 2236   1.958   1.963   0.145  0.0051 -0.2031  0.2784
  746SOL    HW1 2237   1.854   1.986   0.141 -2.3274 -1.8187  1.5781
  746SOL    HW2 2238   1.992   1.967   0.237 -0.8014 -0.2544 -0.0192
  747SOL     OW 2239   0.421   2.468   1.890 -0.8868 -0.3123 -0.2341
  747SOL    HW1 2240   0.424   2.531   1.811 -2.6519  0.1594  0.2206
  747SOL    HW2 2241   0.451   2.374   1.862 -1.7165  2.1769  0.9606
  748SOL     OW 2242   0.858   0.059   2.556 -0.2841  0.1400  0.9841
  748SOL    HW1 2243   0.862  -0.031   2.608 -0.1035  1.2302  0.6809
  748SOL    HW2 2244   0.876   0.133   2.622  0.3321 -0.7371  3.2347
  749SOL     OW 2245   1.067   1.256   0.191  0.4656 -0.0946 -0.2940
  749SOL    HW1 2246   1.151   1.252   0.245 -0.4185  0.1007 -2.2262
  749SOL    HW2 2247   1.083   1.272   0.090 -3.5736 -1.8071  0.9758
  750SOL     OW 2248   1.372   0.503   1.602 -0.1828  0.5050  0.1669
  750SOL    HW1 2249   1.270   0.489   1.602  0.3885  0.3846 -0.1865
  750SOL    HW2 2250   1.402   0.591   1.557  1.7175  0.1507 -1.4929
  751SOL     OW 2251   2.143   2.202   0.568  0.3406  0.4169  0.3687
  751SOL    HW1 2252   2.129   2.268   0.493 -0.1552  2.3476 -0.0882
  751SOL    HW2 2253   2.239   2.190   0.604  1.5503  2.0038 -0.3437
  752SOL     OW 2254   0.840   2.892   2.667  0.4877 -0.0312  0.4446
  752SOL    HW1 2255   0.786   2.882   2.754 -1.2110  2.4982  2.0404
  752SOL    HW2 2256   0.776   2.872   2.588 -1.4479  0.3612  0.0621
  753SOL     OW 2257   0.129   2.134   2.688  0.4357 -0.1836  0.3077
  753SOL    HW1 2258   0.211   2.144   2.634  0.9121 -0.7554 -1.7495
  753SOL    HW2 2259   0.048   2.180   2.644  0.2306 -0.8657  0.0635
  754SOL     OW 2260   0.132   1.861   2.547  0.5184 -0.0919  0.3193
  754SOL    HW1 2261   0.065   1.831   2.479  1.0071  1.8037 -1.7837
  754SOL    HW2 2262   0.106   1.952   2.585  0.3151 -0.8829 -0.5028
  755SOL     OW 2263   2.315   1.220   0.443 -1.0790  0.2007  0.6886
  755SOL    HW1 2264   2.298   1.122   0.413 -1.2502 -0.3960 -0.2605
  755SOL    HW2 2265   2.297   1.283   0.366  0.0430 -0.3651  0.6578
  756SOL     OW 2266   2.195   1.958   2.155 -0.9412 -0.0849  0.1856
  756SOL    HW1 2267   2.167   1.926   2.060 -0.3733  1.3590 -0.4204
  756SOL    HW2 2268   2.289   2.001   2.150  2.4273 -0.5939 -2.5407
  757SOL     OW 2269   2.682   0.621   2.448  0.1498 -0.6475 -0.4365
  757SOL    HW1 2270   2.653   0.715   2.422  0.2482  1.9866  1.2856
  757SOL    HW2 2271   2.754   0.616   2.523 -1.5863 -0.3203  0.3451
  758SOL     OW 2272   2.623   0.263   2.121  0.0842  0.1408 -0.0208
  758SOL    HW1 2273   2.561   0.190   2.161  0.1287 -1.6396  1.3408
  758SOL    HW2 2274   2.655   0.316   2.202  0.5802 -0.7966  0.7385
  759SOL     OW 2275   2.249   3.014   1.605  0.3305 -0.4653  0.0975
  759SOL    HW1 2276   2.153   2.979   1.615 -1.1513  0.9844 -0.2224
  759SOL    HW2 2277   2.312   2.942   1.644  0.0173  0.1891 -0.8778
  760SOL     OW 2278   0.095   1.337   1.409  0.1274 -0.3411  0.1192
  760SOL    HW1 2279   0.184   1.311   1.450  0.3279  2.0769 -0.7077
  760SOL    HW2 2280   0.019   1.291   1.464  0.5603  0.6494 -2.6744
  761SOL     OW 2281   1.614   0.527   1.320 -0.0402  0.1310 -0.4913
  761SOL    HW1 2282   1.579   0.619   1.354 -0.2358 -2.0441 -0.0388
  761SOL    HW2 2283   1.698   0.503   1.376 -0.4165 -0.7006  0.5960
  762SOL     OW 2284   0.831   1.902   1.113 -0.6383 -0.2225  0.3191
  762SOL    HW1 2285   0.731   1.877   1.109  0.7285 -0.7057  0.8474
  762SOL    HW2 2286   0.888   1.849   1.046  1.2212  1.1170  1.3211
  763SOL     OW 2287   1.073   0.313   2.080  0.0258 -0.4806 -0.0692
  763SOL    HW1 2288   1.036   0.320   1.985 -0.1593 -3.6971 -1.9098
  763SOL    HW2 2289   1.000   0.284   2.148  0.4268  0.8761 -1.8846
  764SOL     OW 2290   0.165   2.826   2.488 -0.3413 -0.1392 -0.0174
  764SOL    HW1 2291   0.234   2.783   2.554  0.9594 -0.3294 -2.0611
  764SOL    HW2 2292   0.173   2.783   2.398  1.3729 -1.3538  0.2020
  765SOL     OW 2293   0.158   1.933   0.191  0.0239 -0.1961 -0.2236
  765SOL    HW1 2294   0.252   1.937   0.157 -0.3892  0.4145 -2.8388
  765SOL    HW2 2295   0.134   2.012   0.247  0.2438 -1.1395  0.0638
  766SOL     OW 2296   2.796   1.848   0.535  0.2337 -0.1640 -0.1148
  766SOL    HW1 2297   2.863   1.779   0.496 -1.2136 -0.1325  0.2885
  766SOL    HW2 2298   2.824   1.943   0.514 -0.4007  0.3161  0.4827
  767SOL     OW 2299   1.706   1.890   1.878  0.8098 -0.2766 -0.4315
  767SOL    HW1 2300   1.747   1.980   1.884  0.6671  1.1363 -1.4359
  767SOL    HW2 2301   1.648   1.868   1.958  0.4442  0.0133  0.2030
  768SOL     OW 2302   2.626   1.360   0.092 -0.4384 -0.8288 -0.1231
  768SOL    HW1 2303   2.556   1.426   0.063 -1.3602 -0.6921  3.1364
  768SOL    HW2 2304   2.649   1.369   0.190  0.2538 -1.9774 -0.1348
  769SOL     OW 2305   3.062   2.321   1.715 -0.7996  0.0391 -0.1204
  769SOL    HW1 2306   3.141   2.258   1.724 -0.6748  2.1807  0.1530
  769SOL    HW2 2307   3.044   2.342   1.615  1.4458 -1.1019 -2.1750
  770SOL     OW 2308   2.081   0.586   2.502 -0.6019  0.4757 -0.0587
  770SOL    HW1 2309   2.145   0.556   2.430 -0.5441 -2.7742 -0.5511
  770SOL    HW2 2310   2.010   0.646   2.464 -2.1125  1.8772  2.3289
  771SOL     OW 2311   2.948   0.352   2.206  0.3778  0.0194  0.0941
  771SOL    HW1 2312   2.972   0.413   2.130  0.0737 -2.4706  1.7824
  771SOL    HW2 2313   2.935   0.256   2.177 -1.6653 -2.3366  0.4001
  772SOL     OW 2314   2.360   0.660   1.762  0.2091  0.4360  0.3232
  772SOL    HW1 2315   2.384   0.694   1.668 -2.8933  0.2524 -1.1116
  772SOL    HW2 2316   2.426   0.694   1.829  2.6501 -1.4615  2.3275
  773SOL     OW 2317   0.821   0.871   1.583  0.0798  0.0334 -0.0762
  773SOL    HW1 2318   0.798   0.849   1.677  1.5629  1.6780  0.2769
  773SOL    HW2 2319   0.765   0.817   1.519  0.3938 -1.4144 -0.2667
  774SOL     OW 2320   2.007   1.110   2.207 -0.1425 -0.2373 -0.1542
  774SOL    HW1 2321   2.046   1.028   2.251  4.5208  0.7255 -0.4352
  774SOL    HW2 2322   2.046   1.119   2.114 -3.1926 -0.4784  2.2907
  775SOL     OW 2323   2.388   2.234   0.101  0.1233 -1.1034 -0.2642
  775SOL    HW1 2324   2.379   2.239  -0.001  0.4354  2.9309 -1.9586
  775SOL    HW2 2325   2.365   2.324   0.149 -2.1841  0.3948  1.8291
  776SOL     OW 2326   0.185   1.548   1.248  0.1397 -0.3998 -0.3625
  776SOL    HW1 2327   0.125   1.487   1.308 -0.8605  3.1546  1.1428
  776SOL    HW2 2328   0.145   1.548   1.154 -0.0538 -0.5338 -0.5596
  777SOL     OW 2329   2.896   1.554   1.860 -0.0781  0.0030 -0.2591
  777SOL    HW1 2330   2.881   1.640   1.905  0.2926  0.5477 -0.0688
  777SOL    HW2 2331   2.976   1.506   1.899 -1.5911 -0.1146 -1.1739
  778SOL     OW 2332   1.838   0.486   1.457  0.1859 -0.1738  0.0879
  778SOL    HW1 2333   1.840   0.486   1.561  0.5813 -2.7498  4.2839
  778SOL    HW2 2334   1.917   0.541   1.426 -0.0451 -0.5510 -1.3604
  779SOL     OW 2335   2.564   1.210   0.561 -0.2401  0.3595  0.0365
  779SOL    HW1 2336   2.462   1.211   0.544  1.1610 -1.2961  0.5312
  779SOL    HW2 2337   2.617   1.170   0.482 -0.4801 -0.6945 -1.1160
  780SOL     OW 2338   2.860   2.739   0.595  1.1144 -0.0087  0.1909
  780SOL    HW1 2339   2.939   2.764   0.535  1.3369 -1.7352 -4.1243
  780SOL    HW2 2340   2.845   2.808   0.671 -1.5360  2.7119  0.8080
  781SOL     OW 2341   2.410   1.832   1.212 -0.2115  0.1220  0.3186
  781SOL    HW1 2342   2.353   1.816   1.131  2.8263  0.4376 -0.1722
  781SOL    HW2 2343   2.443   1.926   1.215  1.6229 -1.4948  0.5796
  782SOL     OW 2344   2.684   2.572   2.700  0.3699  0.4309 -0.3807
  782SOL    HW1 2345   2.677   2.583   2.597 -2.1942 -1.3699  0.4478
  782SOL    HW2 2346   2.685   2.667   2.749  1.3847  1.5169  1.3685
  783SOL     OW 2347   1.028   0.916   1.163 -0.0928 -0.5678  0.3078
  783SOL    HW1 2348   1.024   0.901   1.264  1.3627 -1.2001  1.8720
  783SOL    HW2 2349   1.037   0.831   1.110 -2.2037  1.7885  0.9731
  784SOL     OW 2350   2.217   1.405   0.604 -0.2187  0.3607  0.6081
  784SOL    HW1 2351   2.221   1.324   0.543  1.4458  0.5799  2.4413
  784SOL    HW2 2352   2.301   1.411   0.657  2.8014 -1.6000  0.8516
  785SOL     OW 2353   2.445   2.444   0.490  0.3032  0.2245  0.5720
  785SOL    HW1 2354   2.410   2.436   0.390  0.9423  0.0944 -0.5107
  785SOL    HW2 2355   2.379   2.491   0.549 -1.1040  0.0239 -0.7631
  786SOL     OW 2356   0.682   2.546   0.384 -0.2540  0.3734 -0.0466
  786SOL    HW1 2357   0.646   2.557   0.479 -2.2197  1.2774 -0.6923
  786SOL    HW2 2358   0.647   2.462   0.336 -3.3682  0.2551  0.0761
  787SOL     OW 2359   1.496   2.616   1.406  0.4472 -0.0981  0.4368
  787SOL    HW1 2360   1.499   2.512   1.410  2.4602 -1.5076 -2.6312
  787SOL    HW2 2361   1.401   2.653   1.433 -3.0744  0.0360 -1.0658
  788SOL     OW 2362   3.040   0.534   0.005  0.0013  0.1944  0.1852
  788SOL    HW1 2363   3.106   0.607  -0.033  1.5912  0.7555 -1.1362
  788SOL    HW2 2364   3.007   0.471  -0.071 -0.6920 -0.1476  2.2122
  789SOL     OW 2365   2.255   1.889   1.673 -0.3852 -0.3738 -0.2134
  789SOL    HW1 2366   2.289   1.827   1.600  2.4472  0.9849 -2.1070
  789SOL    HW2 2367   2.329   1.918   1.737  1.6876  1.0556  1.8244
  790SOL     OW 2368   0.958   2.438   1.135 -0.0739 -0.4080  0.0985
  790SOL    HW1 2369   0.919   2.468   1.225  0.1742  3.0736 -2.6674
  790SOL    HW2 2370   0.963   2.335   1.139  1.1521  1.9206  1.4049
  791SOL     OW 2371   0.361   0.545   0.285 -0.1231  0.3266 -0.0805
  791SOL    HW1 2372   0.300   0.461   0.254  1.9293 -2.3717 -0.7147
  791SOL    HW2 2373   0.398   0.523   0.378  2.5559  1.0714  0.0108
  792SOL     OW 2374   0.444   2.164   1.561  0.2762 -0.3749  0.1997
  792SOL    HW1 2375   0.489   2.169   1.653 -0.5602  1.0775  2.3836
  792SOL    HW2 2376   0.413   2.255   1.532 -1.3994 -0.1848 -0.2431
  793SOL     OW 2377   0.963   0.021   1.495  0.1375 -0.4394 -0.3558
  793SOL    HW1 2378   1.054  -0.022   1.486  0.9195 -2.4722 -0.8688
  793SOL    HW2 2379   0.920  -0.020   1.578 -2.5424 -0.2652 -1.1638
  794SOL     OW 2380   0.822   1.445   2.552 -0.0188 -0.3579 -0.1515
  794SOL    HW1 2381   0.737   1.474   2.607 -0.4953  0.6973 -1.2030
  794SOL    HW2 2382   0.826   1.489   2.457 -0.6290  1.1791  0.4367
  795SOL     OW 2383   0.126   1.055   2.229 -0.2422 -0.3021  0.0974
  795SOL    HW1 2384   0.191   1.063   2.309 -2.0551  0.4515  1.0032
  795SOL    HW2 2385   0.085   0.958   2.219 -0.1103 -1.3005  0.1317
  796SOL     OW 2386   2.654   1.854   0.770 -0.8236  0.3508  0.0968
  796SOL    HW1 2387   2.710   1.830   0.687  0.0672  3.9088  1.2313
  796SOL    HW2 2388   2.570   1.912   0.756 -2.5380 -1.1242 -0.3494
  797SOL     OW 2389   0.331   2.757   2.688  0.1257 -0.4121 -0.2268
  797SOL    HW1 2390   0.284   2.694   2.756  1.5116 -1.7850  1.5797
  797SOL    HW2 2391   0.425   2.723   2.670 -0.7629 -2.5649 -2.0148
  798SOL     OW 2392   1.578   1.996   1.603 -0.1764 -0.0357  0.3638
  798SOL    HW1 2393   1.635   1.932   1.658 -1.3092  5.3022  2.7258
  798SOL    HW2 2394   1.637   2.056   1.544 -0.2324  0.5042  0.0848
  799SOL     OW 2395   0.322   1.513   3.034 -0.3410 -0.2683  0.3973
  799SOL    HW1 2396   0.386   1.457   2.980 -1.5657  1.2214 -1.4937
  799SOL    HW2 2397   0.372   1.582   3.094 -0.1212 -0.1875 -1.1534
  800SOL     OW 2398   1.052   1.266   1.800 -0.2790  0.2220  0.1002
  800SOL    HW1 2399   1.003   1.208   1.737 -0.8669 -0.3455 -2.4675
  800SOL    HW2 2400   1.058   1.217   1.886  0.3798 -1.1167  0.7977
  801SOL     OW 2401   2.652   0.732   0.202  0.4316  0.0667 -1.0556
  801SOL    HW1 2402   2.747   0.754   0.171 -1.2718  2.6378 -0.3964
  801SOL    HW2 2403   2.609   0.675   0.130 -0.9409 -1.0021 -0.6025
  802SOL     OW 2404   2.841   1.766   1.208 -0.2485  0.4391  0.1542
  802SOL    HW1 2405   2.796   1.778   1.121 -0.7918 -3.7633 -3.2628
  802SOL    HW2 2406   2.881   1.675   1.222  1.4699 -0.7182  1.7069
  803SOL     OW 2407   1.884   2.511   1.750  0.3496  0.2218 -0.0590
  803SOL    HW1 2408   1.932   2.576   1.690 -0.7198  1.2195  0.9477
  803SOL    HW2 2409   1.892   2.418   1.711  0.6940  0.5307 -0.9898
  804SOL     OW 2410   2.691   2.694   0.995 -0.1768 -0.3490 -0.0221
  804SOL    HW1 2411   2.637   2.621   0.949  0.8409  0.5678  2.1130
  804SOL    HW2 2412   2.749   2.743   0.928  2.5363 -2.4673  2.6694
  805SOL     OW 2413   0.461   1.589   0.843  0.8656 -0.2823 -0.0379
  805SOL    HW1 2414   0.364   1.625   0.840  0.2386  3.9797 -4.3076
  805SOL    HW2 2415   0.528   1.663   0.859 -2.6190  0.5272  2.1511
  806SOL     OW 2416   0.406   2.979   0.591 -0.1010 -0.1164  0.0938
  806SOL    HW1 2417   0.399   2.881   0.628  1.2920  4.8261  1.8401
  806SOL    HW2 2418   0.506   3.002   0.566 -1.0172 -2.7787 -0.2029
  807SOL     OW 2419   2.506   1.783   2.716  0.5535  0.0775 -0.4464
  807SOL    HW1 2420   2.423   1.726   2.716 -0.6042  0.9958 -0.0504
  807SOL    HW2 2421   2.589   1.735   2.758 -0.7572 -0.5274  1.5054
  808SOL     OW 2422   1.186   0.221   0.936 -0.1152  0.1377  0.2972
  808SOL    HW1 2423   1.286   0.240   0.939  1.0187 -3.6135 -0.7825
  808SOL    HW2 2424   1.140   0.222   1.028  0.1971 -0.8682 -1.2902
  809SOL     OW 2425   3.020   1.877   0.080  0.8683  0.4059  0.5586
  809SOL    HW1 2426   3.053   1.837  -0.010 -0.5264  1.2915  0.3146
  809SOL    HW2 2427   3.102   1.898   0.134 -2.5328 -2.7686 -0.9055
  810SOL     OW 2428   1.887   2.991   0.656 -0.2792  0.4928  0.2956
  810SOL    HW1 2429   1.950   2.948   0.585 -0.9185  0.8508 -0.7547
  810SOL    HW2 2430   1.936   3.004   0.744  0.7404 -1.0027  2.4649
  811SOL     OW 2431   1.336   1.188   0.320  0.3269  0.0134  0.0791
  811SOL    HW1 2432   1.322   1.085   0.312 -1.1282 -2.5055 -4.3587
  811SOL    HW2 2433   1.423   1.226   0.288 -0.3067  1.4607  0.2387
  812SOL     OW 2434   0.250   0.969   1.334  0.1796 -0.2477  0.2618
  812SOL    HW1 2435   0.319   1.039   1.348  2.6334  1.7102  1.3328
  812SOL    HW2 2436   0.163   1.010   1.298 -0.7045  0.9691  2.2285
  813SOL     OW 2437   2.047   0.636   1.737 -0.3461  0.7603  0.5904
  813SOL    HW1 2438   2.115   0.564   1.763  1.0121 -0.9078 -1.2169
  813SOL    HW2 2439   2.077   0.700   1.660  0.1365 -3.0159  0.7497
  814SOL     OW 2440   1.754   2.817   0.255 -0.1903  0.0591 -0.1714
  814SOL    HW1 2441   1.706   2.906   0.271  0.2570 -0.1046  1.4179
  814SOL    HW2 2442   1.798   2.785   0.340  0.7875  0.1075 -4.6271
  815SOL     OW 2443   0.692   0.233   1.926  0.0255 -0.5939 -0.4510
  815SOL    HW1 2444   0.646   0.237   1.834 -0.2304 -2.4111  2.0808
  815SOL    HW2 2445   0.646   0.300   1.990 -0.4295 -2.6242 -0.3996
  816SOL     OW 2446   1.500   2.693   2.353 -0.3323 -0.1540 -0.0695
  816SOL    HW1 2447   1.480   2.792   2.373 -0.9883  0.0154  0.7788
  816SOL    HW2 2448   1.415   2.638   2.363 -0.2319  0.7560  2.5631
  817SOL     OW 2449   2.396   0.145   1.279  0.4343  0.1650  0.6314
  817SOL    HW1 2450   2.306   0.146   1.230  2.0719  2.2074 -1.2808
  817SOL    HW2 2451   2.469   0.176   1.215 -0.1856  1.7571  1.4096
  818SOL     OW 2452   2.358   1.059   0.040  0.3221 -0.0329 -0.1384
  818SOL    HW1 2453   2.280   0.997   0.074 -0.2016  0.4457 -0.3462
  818SOL    HW2 2454   2.364   1.070  -0.061 -1.2681 -1.5415  2.2129
  819SOL     OW 2455   0.729   1.344   3.042 -0.2083 -0.5558 -0.5280
  819SOL    HW1 2456   0.736   1.386   3.131 -0.9452  1.5165  1.0554
  819SOL    HW2 2457   0.793   1.267   3.029 -0.6271  1.5138 -1.9711
  820SOL     OW 2458   3.061   1.940   1.256 -0.0036  0.0591  0.2851
  820SOL    HW1 2459   2.983   1.882   1.221  0.8873  3.7659  1.8608
  820SOL    HW2 2460   3.034   2.039   1.261  0.8401 -1.0783  0.1966
  821SOL     OW 2461   0.495   1.726   1.528  0.0591  0.0977 -0.2630
  821SOL    HW1 2462   0.421   1.793   1.534 -0.0877  0.5786 -0.1520
  821SOL    HW2 2463   0.586   1.771   1.541 -0.3307  0.6623  1.1939
  822SOL     OW 2464   0.189   1.607   2.479  0.2246 -0.3643  0.0474
  822SOL    HW1 2465   0.108   1.596   2.419 -0.3616 -0.8953  2.9107
  822SOL    HW2 2466   0.195   1.695   2.528  0.6352  1.0345 -1.0932
  823SOL     OW 2467   1.983   2.302   2.347  0.1022 -0.1041  0.2553
  823SOL    HW1 2468   1.983   2.371   2.268  1.4978  1.0879 -1.3149
  823SOL    HW2 2469   1.919   2.227   2.324 -3.4810 -0.9883  0.3889
  824SOL     OW 2470   1.704   2.036   0.110 -0.5792  0.4197 -0.3871
  824SOL    HW1 2471   1.717   2.108   0.039 -0.5747  1.3653  2.4286
  824SOL    HW2 2472   1.623   1.982   0.091  1.1414 -2.4698  2.8467
  825SOL     OW 2473   0.522   1.407   0.283  0.0574  0.0462  0.0325
  825SOL    HW1 2474   0.490   1.462   0.360  1.5661 -1.1895  0.4342
  825SOL    HW2 2475   0.450   1.346   0.241  3.5680  1.3492 -1.3170
  826SOL     OW 2476   2.937   1.653   0.429  0.4051  0.3371 -1.0915
  826SOL    HW1 2477   2.891   1.608   0.352 -1.4578  0.3136  0.9232
  826SOL    HW2 2478   3.039   1.668   0.416  0.6852  0.4093 -0.6040
  827SOL     OW 2479   0.432   1.938   0.158  0.2082 -0.0790 -0.5434
  827SOL    HW1 2480   0.430   1.977   0.250  1.9075 -0.6118  0.2843
  827SOL    HW2 2481   0.505   1.981   0.104 -2.0647  0.9482 -0.8755
  828SOL     OW 2482   0.090   3.056   0.748  0.1513 -0.4625 -0.4160
  828SOL    HW1 2483  -0.001   3.100   0.760  1.2578  0.7292 -2.2834
  828SOL    HW2 2484   0.129   3.080   0.656 -0.2119  0.0759 -0.5041
  829SOL     OW 2485   1.373   0.193   2.977  0.3522  0.5216 -0.3320
  829SOL    HW1 2486   1.324   0.196   2.888  3.3572  1.4525 -0.7803
  829SOL    HW2 2487   1.475   0.205   2.968 -1.6316 -1.0113 -1.7584
  830SOL     OW 2488   1.081   2.997   1.188 -0.0005 -0.4374  0.2263
  830SOL    HW1 2489   1.075   3.100   1.185  1.2981  0.4697  3.9584
  830SOL    HW2 2490   1.176   2.968   1.166  1.1661 -0.2153  0.8784
  831SOL     OW 2491   2.020   1.437   0.796 -0.5215  0.2218 -0.2547
  831SOL    HW1 2492   2.082   1.410   0.718  0.0766  2.8721  1.8740
  831SOL    HW2 2493   2.053   1.397   0.884 -0.9415  2.7936  0.9958
  832SOL     OW 2494   1.229   2.448   1.035 -0.1487  0.0652 -0.2250
  832SOL    HW1 2495   1.144   2.445   1.090 -0.1467 -1.1758  2.5337
  832SOL    HW2 2496   1.207   2.423   0.940 -0.8276 -1.6947 -0.5978
  833SOL     OW 2497   2.492   2.008   1.762  0.7254  0.1680 -0.2396
  833SOL    HW1 2498   2.516   2.101   1.787  0.4233  0.7263 -0.2890
  833SOL    HW2 2499   2.574   1.966   1.714 -3.3846 -0.8979 -0.6870
  834SOL     OW 2500   0.801   2.466   1.349 -0.0757  0.8915  0.0354
  834SOL    HW1 2501   0.709   2.480   1.306  0.9067  1.9385  1.6832
  834SOL    HW2 2502   0.806   2.378   1.396 -3.9423  1.5378  0.5631
  835SOL     OW 2503   3.082   1.195   1.794  0.4118  0.0730  0.3838
  835SOL    HW1 2504   3.010   1.147   1.854  1.0097 -1.2653 -0.9200
  835SOL    HW2 2505   3.050   1.204   1.696 -1.4872 -0.9027  0.5312
  836SOL     OW 2506   2.945   2.882   1.824 -0.2414  0.2058 -0.0054
  836SOL    HW1 2507   2.918   2.805   1.763 -3.2246 -1.0012  0.0067
  836SOL    HW2 2508   2.994   2.828   1.896  0.4859 -1.5932  0.6247
  837SOL     OW 2509   1.677   1.860   0.612  0.1342 -0.7222  0.0025
  837SOL    HW1 2510   1.604   1.802   0.569  2.4101  0.7016 -1.0459
  837SOL    HW2 2511   1.651   1.880   0.710  1.6242 -1.9701 -0.9502
  838SOL     OW 2512   1.340   2.157   2.418  0.0865  0.7223  0.3822
  838SOL    HW1 2513   1.393   2.240   2.448  0.2673 -0.9070  0.1732
  838SOL    HW2 2514   1.293   2.112   2.496  0.2634  1.6594  2.1721
  839SOL     OW 2515   1.289   2.400   0.296 -0.5442 -0.3167  0.6149
  839SOL    HW1 2516   1.391   2.402   0.275 -1.3228  2.6556 -1.7616
  839SOL    HW2 2517   1.248   2.494   0.278 -1.4260  2.6818 -2.0246
  840SOL     OW 2518   1.185   2.510   2.123  0.1565  0.7242 -0.4767
  840SOL    HW1 2519   1.088   2.475   2.112 -0.3855  0.3853 -1.9571
  840SOL    HW2 2520   1.193   2.604   2.084  0.3264 -0.5022  0.2914
  841SOL     OW 2521   2.273   1.529   2.026  0.2120  0.1306 -0.0593
  841SOL    HW1 2522   2.181   1.565   1.994 -1.7947 -1.5896 -0.2041
  841SOL    HW2 2523   2.284   1.538   2.128 -2.2986 -0.6508 -1.1405
  842SOL     OW 2524   2.054   1.951   1.913  0.4326 -0.0320 -0.5857
  842SOL    HW1 2525   2.095   1.938   1.822 -1.0933 -0.4373 -0.5023
  842SOL    HW2 2526   1.981   2.020   1.906  1.0405 -1.4571 -1.2101
  843SOL     OW 2527   1.807   2.075   2.261  0.0144  0.4548  0.0584
  843SOL    HW1 2528   1.869   1.991   2.240  1.5896 -0.3992  1.9113
  843SOL    HW2 2529   1.720   2.036   2.299  0.4318 -1.6260 -1.3417
  844SOL     OW 2530   1.632   2.930   0.564 -0.6338  0.3585 -0.0377
  844SOL    HW1 2531   1.558   2.955   0.633  4.3264  1.0953 -0.3571
  844SOL    HW2 2532   1.719   2.949   0.611 -1.2919  0.1368  0.4282
  845SOL     OW 2533   2.152   0.484   0.470 -0.4235  0.7074  0.6381
  845SOL    HW1 2534   2.215   0.536   0.522  1.0702  0.8185 -3.1716
  845SOL    HW2 2535   2.055   0.515   0.492  0.9926  1.3177 -0.1115
  846SOL     OW 2536   0.811   2.093   0.607 -0.2264 -0.0773 -0.0822
  846SOL    HW1 2537   0.831   1.997   0.630  0.7361  0.9508 -3.7355
  846SOL    HW2 2538   0.833   2.110   0.511  0.7135  1.9015 -2.1994
  847SOL     OW 2539   0.970   2.687   1.453 -0.1897 -0.5057 -0.0051
  847SOL    HW1 2540   0.896   2.612   1.445  1.2836  1.6327 -1.5410
  847SOL    HW2 2541   0.968   2.745   1.371 -2.5354  0.1358 -0.2302
  848SOL     OW 2542   0.879   1.109   0.276  0.1244 -0.1425 -0.3141
  848SOL    HW1 2543   0.793   1.154   0.311  3.0625 -1.3039  1.8903
  848SOL    HW2 2544   0.946   1.180   0.247 -0.8135 -0.3599 -1.0776
  849SOL     OW 2545   0.446   0.366   2.526  0.3824 -0.1538  0.2196
  849SOL    HW1 2546   0.526   0.310   2.501 -2.2152  0.6636  0.3215
  849SOL    HW2 2547   0.462   0.415   2.615  3.7602  1.9247 -0.2748
  850SOL     OW 2548   1.117   0.287   0.517  0.0548  0.1287  0.1649
  850SOL    HW1 2549   1.172   0.202   0.520  1.6407 -1.0249  0.6849
  850SOL    HW2 2550   1.071   0.317   0.604  1.7976  0.3796  0.3324
  851SOL     OW 2551   1.999   2.696   2.416 -0.2607  0.0567 -0.4284
  851SOL    HW1 2552   2.038   2.650   2.493  3.1693  2.0246 -0.3807
  851SOL    HW2 2553   1.899   2.710   2.435  1.1585 -3.0385  0.9411
  852SOL     OW 2554   1.520   1.719   1.773 -0.0951  0.3496 -0.9693
  852SOL    HW1 2555   1.469   1.664   1.842 -3.1889  0.2392  0.4982
  852SOL    HW2 2556   1.581   1.788   1.818 -0.0821  1.6004  1.6560
  853SOL     OW 2557   3.047   2.566   0.250  0.0134 -0.2536 -0.0936
  853SOL    HW1 2558   3.021   2.649   0.306 -0.2415  1.6134 -0.7297
  853SOL    HW2 2559   3.145   2.541   0.247  0.8890  0.7511 -1.2943
  854SOL     OW 2560   2.374   2.687   1.414 -0.4079  0.1634 -0.0546
  854SOL    HW1 2561   2.389   2.598   1.367  0.9487  1.1219 -0.1882
  854SOL    HW2 2562   2.466   2.715   1.444  1.9530 -0.0097 -2.1270
  855SOL     OW 2563   2.368   2.247   2.929  0.0374 -0.8466  0.1577
  855SOL    HW1 2564   2.398   2.340   2.904 -1.7760  2.1394 -0.8766
  855SOL    HW2 2565   2.432   2.178   2.892  1.1173 -1.8712 -2.0673
  856SOL     OW 2566   2.688   0.111   0.456 -0.5711  0.5277 -0.0380
  856SOL    HW1 2567   2.653   0.202   0.427 -2.1630  1.8414 -1.6475
  856SOL    HW2 2568   2.731   0.064   0.376  1.0282  0.0026  0.1991
  857SOL     OW 2569   1.394   2.900   2.129  0.1436  0.4760 -0.4330
  857SOL    HW1 2570   1.305   2.873   2.163  1.2228  0.7188  2.0773
  857SOL    HW2 2571   1.435   2.832   2.067  1.6516  3.2041  0.7269
  858SOL     OW 2572   0.566   1.211   1.868  0.0258 -0.2694  0.9841
  858SOL    HW1 2573   0.661   1.225   1.902  0.4606 -0.9325 -1.2506
  858SOL    HW2 2574   0.530   1.127   1.912 -0.5254 -0.9107 -1.5566
  859SOL     OW 2575   2.031   2.458   0.809 -0.2538 -0.2112 -0.1844
  859SOL    HW1 2576   1.992   2.372   0.775 -0.0923 -2.7368 -0.8228
  859SOL    HW2 2577   1.961   2.503   0.870  0.6500 -0.3728  1.9566
  860SOL     OW 2578   2.331   0.010   0.408 -0.2792 -0.0130  0.1242
  860SOL    HW1 2579   2.331   0.107   0.437 -2.2618 -1.6417 -0.3398
  860SOL    HW2 2580   2.400  -0.044   0.460  0.4065  1.2322  2.7151
  861SOL     OW 2581   1.856   2.661   0.502  0.5256  0.3092 -0.2038
  861SOL    HW1 2582   1.780   2.690   0.565 -0.3676  0.3196 -0.0616
  861SOL    HW2 2583   1.829   2.574   0.457  1.6209  1.6960  1.7174
  862SOL     OW 2584   0.004   2.982   2.983  0.4870 -0.7758  0.1514
  862SOL    HW1 2585   0.015   3.020   2.887 -3.9754 -1.1524 -0.4993
  862SOL    HW2 2586   0.026   2.886   2.985 -1.9705 -1.0896 -0.0885
  863SOL     OW 2587   1.164   2.834   0.965 -0.5236 -0.2696  0.4122
  863SOL    HW1 2588   1.099   2.763   0.997  0.7834  4.9405  0.2414
  863SOL    HW2 2589   1.217   2.884   1.042  2.0532 -1.8547  1.6031
  864SOL     OW 2590   2.962   0.469   1.631  0.1416  0.3610  0.0860
  864SOL    HW1 2591   2.912   0.435   1.710 -2.2485  1.1489  0.5548
  864SOL    HW2 2592   2.895   0.473   1.552  0.1018 -1.3632  2.8781
  865SOL     OW 2593   1.888   2.154   2.688  0.1775  0.0477 -0.9166
  865SOL    HW1 2594   1.982   2.153   2.726 -0.9635 -0.7876  1.9702
  865SOL    HW2 2595   1.868   2.251   2.668 -0.6500  1.6118 -1.2362
  866SOL     OW 2596   2.327   1.030   2.842  0.0265 -0.6990  0.4033
  866SOL    HW1 2597   2.234   0.992   2.825  0.4828  0.0527 -0.7915
  866SOL    HW2 2598   2.390   0.986   2.775  0.1584  2.8521  1.5849
  867SOL     OW 2599   0.181   0.288   2.028 -0.4939  0.1170  0.1880
  867SOL    HW1 2600   0.217   0.223   1.960 -1.0131  2.5024 -3.7355
  867SOL    HW2 2601   0.237   0.374   2.026  0.6206  0.3555  1.0184
  868SOL     OW 2602   2.988   1.103   1.050  1.6191 -0.1041  0.3300
  868SOL    HW1 2603   2.994   1.023   1.110  0.9805 -0.9821  1.7022
  868SOL    HW2 2604   3.057   1.178   1.078 -1.4715 -2.6445 -0.2383
  869SOL     OW 2605   1.235   1.603   2.778 -0.1456 -0.6813  0.0237
  869SOL    HW1 2606   1.263   1.523   2.731 -2.4944  0.2890 -0.2490
  869SOL    HW2 2607   1.278   1.686   2.736  0.0773  1.4607 -0.6952
  870SOL     OW 2608   2.831   2.302   1.127 -0.4384 -0.1230 -0.0005
  870SOL    HW1 2609   2.769   2.353   1.187  0.7607  1.0259  0.8193
  870SOL    HW2 2610   2.853   2.353   1.042  2.3461  0.1694 -0.4593
  871SOL     OW 2611   2.786   1.451   2.599  0.6781  0.4631  0.2785
  871SOL    HW1 2612   2.706   1.386   2.605 -0.5075 -1.8952 -0.0776
  871SOL    HW2 2613   2.771   1.529   2.663 -0.8476 -2.5739  0.4931
  872SOL     OW 2614   1.283   0.730   1.277 -0.4898 -0.6869 -0.7351
  872SOL    HW1 2615   1.273   0.640   1.230  1.0723  2.5592 -1.3706
  872SOL    HW2 2616   1.195   0.772   1.302  0.3860 -1.3005 -0.8646
  873SOL     OW 2617   2.167   0.612   2.961  0.1131 -0.0335 -0.2886
  873SOL    HW1 2618   2.141   0.662   2.878  0.5683  0.0179 -0.5830
  873SOL    HW2 2619   2.219   0.529   2.935 -0.0349 -0.6661 -0.4909
  874SOL     OW 2620   2.317   1.322   1.357 -0.2496 -0.2822  0.1247
  874SOL    HW1 2621   2.226   1.341   1.402  3.1932 -1.0771 -0.9863
  874SOL    HW2 2622   2.307   1.281   1.266 -1.8937  1.7155  0.1338
  875SOL     OW 2623   2.572   0.327   2.867 -0.2287  0.1321 -0.1980
  875SOL    HW1 2624   2.634   0.407   2.873 -2.8278 -0.4992 -0.6369
  875SOL    HW2 2625   2.568   0.294   2.769  1.0097  0.4930 -0.2578
  876SOL     OW 2626   1.860   0.422   2.959  0.6096  0.7993 -0.9084
  876SOL    HW1 2627   1.897   0.444   3.049  1.2472 -2.4731  0.8587
  876SOL    HW2 2628   1.845   0.508   2.906 -1.0853 -3.3042  0.7127
  877SOL     OW 2629   0.212   0.313   0.234  0.3143  0.2539  0.0070
  877SOL    HW1 2630   0.233   0.294   0.136 -0.2848 -2.2563  2.4526
  877SOL    HW2 2631   0.116   0.338   0.250  0.2159 -0.6207 -0.3440
  878SOL     OW 2632   2.272   2.827   2.685  0.1406 -0.2935  0.1505
  878SOL    HW1 2633   2.197   2.898   2.671  0.8594 -0.2976 -1.1274
  878SOL    HW2 2634   2.327   2.854   2.764 -0.8420  2.3491 -0.6608
  879SOL     OW 2635   1.959   1.865   2.248 -1.0129 -0.3546 -0.0853
  879SOL    HW1 2636   1.923   1.777   2.214  0.6276  0.6886  2.9584
  879SOL    HW2 2637   2.043   1.895   2.202  0.6153  0.1767 -2.0477
  880SOL     OW 2638   0.590   0.922   2.535 -0.1793 -0.0950 -0.1518
  880SOL    HW1 2639   0.590   0.823   2.510  0.4623  0.3721  2.5668
  880SOL    HW2 2640   0.601   0.987   2.453 -4.1586  1.2807  2.7151
  881SOL     OW 2641   0.526   1.325   2.839  0.4745  0.4988 -0.8938
  881SOL    HW1 2642   0.550   1.403   2.772  3.1355 -0.9932 -0.4044
  881SOL    HW2 2643   0.587   1.328   2.919 -0.2939  0.5727  1.2658
  882SOL     OW 2644   0.908   0.539   1.727 -0.3734 -0.7426  0.2183
  882SOL    HW1 2645   0.870   0.618   1.783 -0.6429 -2.2469 -2.3811
  882SOL    HW2 2646   0.921   0.454   1.787  1.1239  0.2983  0.4370
  883SOL     OW 2647   2.388   1.491   3.087  0.2977  0.1534 -0.0911
  883SOL    HW1 2648   2.347   1.584   3.076  0.0466 -2.2609  1.9787
  883SOL    HW2 2649   2.353   1.425   3.018 -1.3802 -1.1527  1.7484
  884SOL     OW 2650   2.698   1.417   0.352 -0.6873 -0.1511 -0.0529
  884SOL    HW1 2651   2.689   1.354   0.431  0.7205 -1.8514  1.2765
  884SOL    HW2 2652   2.660   1.512   0.369 -1.2711 -0.0978 -1.9732
  885SOL     OW 2653   1.223   1.087   1.043  0.3551  0.1958 -0.0744
  885SOL    HW1 2654   1.148   1.030   1.085 -2.7415  3.7065  3.2018
  885SOL    HW2 2655   1.209   1.186   1.057  2.5925  0.2622  1.2284
  886SOL     OW 2656   2.137   2.182   2.768  0.2695  0.3057  0.3570
  886SOL    HW1 2657   2.206   2.200   2.842 -0.0137  0.5789  1.2846
  886SOL    HW2 2658   2.174   2.180   2.674 -2.5700  2.2708 -1.0453
  887SOL     OW 2659   1.185   2.822   0.407  0.0860 -0.3160 -0.1086
  887SOL    HW1 2660   1.124   2.887   0.455  1.8153  1.0110  2.2728
  887SOL    HW2 2661   1.247   2.775   0.473 -0.1076  3.0208  1.1159
  888SOL     OW 2662   1.854   0.710   2.394 -0.3169 -0.3979 -0.4308
  888SOL    HW1 2663   1.780   0.783   2.409  2.7738  0.5986 -1.3864
  888SOL    HW2 2664   1.828   0.646   2.321 -2.5139  0.7123  2.4518
  889SOL     OW 2665   0.664   3.050   0.567  0.3297  0.1423  0.1380
  889SOL    HW1 2666   0.751   3.017   0.526  1.3564 -2.0385  0.2858
  889SOL    HW2 2667   0.674   3.149   0.587  1.0157  1.6998  1.6080
  890SOL     OW 2668   2.940   1.857   2.472 -0.6969  0.0769  0.4428
  890SOL    HW1 2669   2.903   1.935   2.417  0.6942  0.2585 -3.5256
  890SOL    HW2 2670   2.942   1.872   2.575 -0.3255 -1.1886 -0.5911
  891SOL     OW 2671   3.090   2.667   1.019  0.1445 -0.0513  0.4305
  891SOL    HW1 2672   3.141   2.742   0.969 -0.7899  1.6746 -1.4997
  891SOL    HW2 2673   3.045   2.593   0.964  1.5058  0.9193 -2.8807
  892SOL     OW 2674   0.325   1.932   1.465 -0.5628  0.7163 -0.4388
  892SOL    HW1 2675   0.345   2.021   1.506 -3.0340 -0.9394 -1.2234
  892SOL    HW2 2676   0.230   1.900   1.477  0.1414  0.8260  1.2608
  893SOL     OW 2677   2.764   2.949   1.206  0.1451  0.9997 -0.0369
  893SOL    HW1 2678   2.757   2.976   1.305 -0.8504 -0.9033  2.4831
  893SOL    HW2 2679   2.813   2.858   1.203 -1.2110  2.2566 -2.9247
  894SOL     OW 2680   2.071   1.580   1.096 -0.0597  0.0481  0.2342
  894SOL    HW1 2681   2.049   1.479   1.091 -0.8190  2.0519  0.6695
  894SOL    HW2 2682   2.030   1.623   1.017 -0.7776  0.4917  0.6476
  895SOL     OW 2683   0.886   1.943   1.372  0.9044  0.4548 -0.1399
  895SOL    HW1 2684   0.987   1.934   1.400  2.4147  0.3067  0.1205
  895SOL    HW2 2685   0.859   1.930   1.276  2.7933 -1.6896  0.5535
  896SOL     OW 2686   2.258   0.503   1.375  0.4647 -0.0929 -0.0069
  896SOL    HW1 2687   2.249   0.407   1.407  1.2363 -0.8699 -0.7612
  896SOL    HW2 2688   2.165   0.544   1.360 -1.0357 -0.9547 -0.3536
  897SOL     OW 2689   1.503   2.716   0.448 -0.3467 -0.7440  0.1174
  897SOL    HW1 2690   1.437   2.685   0.520  0.5673  2.0262  0.3159
  897SOL    HW2 2691   1.558   2.797   0.473 -0.5172  1.7401  2.3040
  898SOL     OW 2692   0.053   0.459   2.356  0.0868  0.1466  0.2434
  898SOL    HW1 2693  -0.034   0.415   2.321  2.6580  1.0626  1.0859
  898SOL    HW2 2694   0.121   0.389   2.388  1.4952  0.7775 -0.1902
  899SOL     OW 2695   3.011   0.703   1.919  0.7786  0.1781  0.2441
  899SOL    HW1 2696   3.093   0.732   1.862 -1.1542  1.0708 -0.9798
  899SOL    HW2 2697   3.027   0.606   1.957 -2.6209 -1.2520 -0.8840
  900SOL     OW 2698   1.268   2.037   3.016  0.0072 -0.2169  0.2358
  900SOL    HW1 2699   1.208   2.020   3.095  0.2247  0.9435  0.8801
  900SOL    HW2 2700   1.211   2.050   2.930 -0.5423 -1.5896 -0.9966
  901SOL     OW 2701   2.665   2.529   0.616 -0.5105  0.7951 -0.0845
  901SOL    HW1 2702   2.734   2.601   0.596  2.3081 -0.7886  0.7475
  901SOL    HW2 2703   2.596   2.512   0.541  3.3299 -0.8341  0.2477
  902SOL     OW 2704   1.597   3.036   0.303  0.1559 -0.4077  0.0268
  902SOL    HW1 2705   1.504   3.013   0.267 -1.1843  2.5986  0.0817
  902SOL    HW2 2706   1.606   3.012   0.403 -0.4877  1.6204  1.3593
  903SOL     OW 2707   2.336   1.150   1.767 -0.1989  0.5583 -0.8325
  903SOL    HW1 2708   2.433   1.164   1.744 -1.9763  0.8620 -2.2485
  903SOL    HW2 2709   2.312   1.183   1.859 -3.3870  1.5731 -1.6450
  904SOL     OW 2710   1.155   1.143   2.524  0.4464  0.1408  0.1144
  904SOL    HW1 2711   1.080   1.177   2.583  0.3092 -0.1211 -2.4838
  904SOL    HW2 2712   1.176   1.044   2.544  0.8037 -0.8389  0.4863
  905SOL     OW 2713   0.500   0.359   1.346 -0.3110 -0.2399 -0.5338
  905SOL    HW1 2714   0.475   0.430   1.415  1.2287  0.2819 -3.9838
  905SOL    HW2 2715   0.598   0.347   1.350 -0.2691 -2.4103 -1.1673
  906SOL     OW 2716   1.859   2.127   1.000  0.3029  0.3689  0.3860
  906SOL    HW1 2717   1.889   2.123   0.903  2.2789  3.1744 -2.5745
  906SOL    HW2 2718   1.779   2.188   1.012 -1.1185  2.0838  0.8861
  907SOL     OW 2719   2.385   1.950   0.719 -0.0712 -0.4459 -0.2613
  907SOL    HW1 2720   2.329   1.983   0.801  0.2786 -1.6379 -0.3715
  907SOL    HW2 2721   2.362   1.849   0.701  0.0824 -2.5676  0.7630
  908SOL     OW 2722   1.410   2.066   0.459 -0.2334  0.0769 -0.0335
  908SOL    HW1 2723   1.503   2.085   0.422  3.8820 -1.4394 -0.8623
  908SOL    HW2 2724   1.374   2.154   0.497  1.8045 -3.8277  0.8750
  909SOL     OW 2725   0.141   2.877   0.947 -0.4716  0.2998 -0.2889
  909SOL    HW1 2726   0.147   2.945   0.872  0.4879 -1.0985 -0.6448
  909SOL    HW2 2727   0.200   2.793   0.930  1.3925 -0.4895 -1.7535
  910SOL     OW 2728   2.362   0.950   1.344 -0.3715  0.3911 -0.2076
  910SOL    HW1 2729   2.432   0.983   1.282 -0.9915  0.8099 -2.7977
  910SOL    HW2 2730   2.328   1.024   1.403 -0.2397  0.8527 -1.7549
  911SOL     OW 2731   1.564   0.345   0.224  0.3104  0.9263 -0.1883
  911SOL    HW1 2732   1.618   0.275   0.176 -1.2778  3.0561  1.2501
  911SOL    HW2 2733   1.470   0.357   0.178 -0.3038  3.5421 -0.1530
  912SOL     OW 2734   0.324   0.816   0.330  0.1524  0.7509  0.1577
  912SOL    HW1 2735   0.413   0.869   0.337  0.6613  2.4864 -0.7732
  912SOL    HW2 2736   0.336   0.714   0.321  1.0029 -2.0497 -0.0625
  913SOL     OW 2737   2.401   0.207   0.789  0.2572 -0.4611 -0.0929
  913SOL    HW1 2738   2.383   0.208   0.687 -3.5553  0.6373 -1.0776
  913SOL    HW2 2739   2.331   0.255   0.842 -0.9065  1.3140 -0.2361
  914SOL     OW 2740   2.478   0.001   1.484 -0.5139 -0.1597 -0.0163
  914SOL    HW1 2741   2.451   0.045   1.392 -0.2986 -0.3490 -0.7604
  914SOL    HW2 2742   2.400  -0.040   1.542 -0.6550  0.6509  0.2184
  915SOL     OW 2743   0.294   0.955   1.972 -0.2745  0.3498  0.3856
  915SOL    HW1 2744   0.244   0.940   2.062 -1.2735  0.3510  0.3916
  915SOL    HW2 2745   0.391   0.965   1.986 -1.7774  1.0714 -1.0664
  916SOL     OW 2746   1.960   2.521   1.313  0.6401 -0.3114 -0.4028
  916SOL    HW1 2747   1.971   2.600   1.254 -0.2212  0.5600  2.3019
  916SOL    HW2 2748   2.037   2.457   1.299 -1.2545 -1.8644 -2.0983
  917SOL     OW 2749   0.176   2.721   2.242 -0.5788  0.0726  0.2732
  917SOL    HW1 2750   0.193   2.621   2.262 -1.3184  0.9548  0.6555
  917SOL    HW2 2751   0.118   2.728   2.163  0.3267 -1.9875 -0.7171
  918SOL     OW 2752   0.210   2.464   2.319  0.0132  0.3514  0.3891
  918SOL    HW1 2753   0.131   2.438   2.373 -1.9410 -2.4258 -0.3331
  918SOL    HW2 2754   0.205   2.429   2.223  0.2152 -2.6884 -0.9269
  919SOL     OW 2755   0.857   0.281   0.434 -0.1418 -0.0931 -0.3006
  919SOL    HW1 2756   0.962   0.274   0.440  1.9814 -0.5073  0.3849
  919SOL    HW2 2757   0.821   0.257   0.527 -0.4290 -2.9021 -0.1946
  920SOL     OW 2758   2.437   0.672   2.765 -0.4184  0.9630 -0.5676
  920SOL    HW1 2759   2.462   0.758   2.713 -0.4358  0.9409 -0.0793
  920SOL    HW2 2760   2.494   0.653   2.849  1.8791  3.0483 -1.5137
  921SOL     OW 2761   2.810   1.832   1.922  0.5530  0.1364 -0.1912
  921SOL    HW1 2762   2.808   1.870   1.827 -0.2770  1.2103  1.6888
  921SOL    HW2 2763   2.719   1.796   1.953  1.9334  1.7428  0.9875
  922SOL     OW 2764   0.191   2.845   1.549 -0.4473  0.6634  0.9883
  922SOL    HW1 2765   0.225   2.755   1.520  3.1585 -1.5677 -0.6851
  922SOL    HW2 2766   0.101   2.871   1.509 -0.2745 -2.0363 -0.2573
  923SOL     OW 2767   0.780   0.142   0.221  0.2331  0.0458 -0.1657
  923SOL    HW1 2768   0.812   0.192   0.308 -3.9985 -0.9617  1.8560
  923SOL    HW2 2769   0.687   0.108   0.245  0.7079 -2.4003 -2.3343
  924SOL     OW 2770   0.928   1.204   2.667  0.2119  0.1848  0.3079
  924SOL    HW1 2771   0.853   1.135   2.688 -0.1668  0.1426  1.5193
  924SOL    HW2 2772   0.887   1.293   2.635  1.5613 -0.2057  0.4435
  925SOL     OW 2773   0.559   0.943   0.397  0.6757 -0.5481  0.2600
  925SOL    HW1 2774   0.499   0.950   0.482 -2.3541  0.2089 -0.5810
  925SOL    HW2 2775   0.593   1.035   0.365 -2.7612 -0.3292  0.7769
  926SOL     OW 2776   0.587   2.687   1.041  0.1280  0.0307 -0.3392
  926SOL    HW1 2777   0.595   2.769   0.983 -0.5806  1.3915 -0.4815
  926SOL    HW2 2778   0.648   2.607   1.015 -1.2351  1.2831 -0.1064
  927SOL     OW 2779   0.742   2.038   1.805 -0.1081 -0.1064  0.5548
  927SOL    HW1 2780   0.824   2.068   1.751 -1.6873  1.0193 -3.1297
  927SOL    HW2 2781   0.762   2.029   1.904 -2.0698 -2.3061  0.6265
  928SOL     OW 2782   1.491   0.284   1.932 -0.2656 -0.0100  0.5759
  928SOL    HW1 2783   1.527   0.305   1.834  0.6597 -0.2620 -0.0485
  928SOL    HW2 2784   1.417   0.344   1.961  0.0674  1.0932  1.2244
  929SOL     OW 2785   0.175   2.121   1.777  0.3065 -0.0538 -0.4640
  929SOL    HW1 2786   0.113   2.044   1.789 -1.2529  1.9503 -3.1504
  929SOL    HW2 2787   0.263   2.112   1.825 -2.7579  0.9920  0.2546
  930SOL     OW 2788   1.415   0.727   2.425  0.6632 -0.8460 -0.6232
  930SOL    HW1 2789   1.413   0.676   2.512 -2.3919  0.5929 -1.9009
  930SOL    HW2 2790   1.452   0.824   2.439  0.8068 -1.2458  1.8348
  931SOL     OW 2791   3.048   0.436   1.965  0.3206  0.1511  0.1766
  931SOL    HW1 2792   2.987   0.396   1.893 -0.0328  0.5577  1.1271
  931SOL    HW2 2793   3.132   0.382   1.979  1.9867  0.3594 -2.2807
  932SOL     OW 2794   2.553   0.578   0.685 -0.1883 -0.9530  0.5347
  932SOL    HW1 2795   2.585   0.514   0.757  0.2926  1.1458  0.9206
  932SOL    HW2 2796   2.597   0.561   0.594  1.5736 -2.4432 -0.1311
  933SOL     OW 2797   1.455   0.262   0.479 -0.1564 -0.3075 -0.4243
  933SOL    HW1 2798   1.478   0.284   0.382  4.2404 -0.6537 -2.0383
  933SOL    HW2 2799   1.463   0.354   0.531  0.7499  1.7885 -0.7043
  934SOL     OW 2800   2.582   1.646   2.318 -0.1491 -0.3555  0.3483
  934SOL    HW1 2801   2.565   1.744   2.349 -1.4369  1.8539 -0.1454
  934SOL    HW2 2802   2.680   1.628   2.330 -1.3799 -2.4780 -2.3061
  935SOL     OW 2803   2.875   0.417   0.942 -0.1720  0.3295 -0.1875
  935SOL    HW1 2804   2.948   0.372   0.887  1.5077  0.2934 -0.1569
  935SOL    HW2 2805   2.779   0.393   0.917 -5.7138  2.0207 -0.5485
  936SOL     OW 2806   2.377   2.455   1.280  0.8320  0.2132 -0.3505
  936SOL    HW1 2807   2.335   2.384   1.337 -0.1411  2.7810  2.6210
  936SOL    HW2 2808   2.333   2.452   1.187 -0.1044  1.8930 -0.0439
  937SOL     OW 2809   1.744   2.598   0.099  0.2028  0.1322 -0.8490
  937SOL    HW1 2810   1.817   2.534   0.057 -2.3725 -0.5714 -1.1390
  937SOL    HW2 2811   1.767   2.694   0.066  1.2893 -2.6582 -0.1770
  938SOL     OW 2812   2.282   1.740   0.966 -0.2002  0.0767  0.2199
  938SOL    HW1 2813   2.255   1.652   0.999 -2.0105  0.2133  0.1681
  938SOL    HW2 2814   2.299   1.729   0.864 -1.0063  0.5169 -3.5671
  939SOL     OW 2815   1.093   0.566   1.543  0.0983  0.0230 -0.4186
  939SOL    HW1 2816   1.020   0.566   1.614 -1.4715 -1.9288 -0.4671
  939SOL    HW2 2817   1.045   0.551   1.458 -2.4297  0.7014 -1.1822
  940SOL     OW 2818   2.042   2.363   0.324  0.4613  0.8269  0.2300
  940SOL    HW1 2819   1.944   2.391   0.342 -1.3866 -0.3018 -0.3867
  940SOL    HW2 2820   2.046   2.298   0.246  0.5621 -0.8882  0.0565
  941SOL     OW 2821   2.511   1.121   2.288 -0.7625  0.0875 -0.3264
  941SOL    HW1 2822   2.514   1.024   2.316  0.5621  0.8973  3.2018
  941SOL    HW2 2823   2.413   1.160   2.283  1.0508 -0.3242  1.3923
  942SOL     OW 2824   0.030   0.334   0.809 -0.0533  0.0375  0.1144
  942SOL    HW1 2825   0.084   0.413   0.783 -0.0052  0.9911  1.3717
  942SOL    HW2 2826  -0.004   0.289   0.724  0.6658  1.7055  0.1696
  943SOL     OW 2827   0.466   1.797   2.237  0.4866 -0.0368 -0.3200
  943SOL    HW1 2828   0.401   1.796   2.154 -0.6094  2.2125  0.7399
  943SOL    HW2 2829   0.414   1.823   2.320 -0.3848 -0.6311 -1.4089
  944SOL     OW 2830   2.275   0.829   0.833  0.0228 -0.0308  0.5544
  944SOL    HW1 2831   2.186   0.875   0.828  0.6706 -2.7008 -2.4292
  944SOL    HW2 2832   2.351   0.899   0.849 -0.4320 -0.9379  1.1644
  945SOL     OW 2833   2.506   0.042   2.238  0.2192  0.1438  0.2202
  945SOL    HW1 2834   2.407   0.024   2.253 -1.5562 -0.3450  0.6278
  945SOL    HW2 2835   2.542   0.080   2.323 -1.4264  0.3806 -2.4300
  946SOL     OW 2836   2.353   1.748   1.465  0.4660  0.4933  0.5201
  946SOL    HW1 2837   2.285   1.684   1.426  0.3619 -1.5368 -1.5398
  946SOL    HW2 2838   2.388   1.816   1.394 -0.2324 -0.5053 -0.2456
  947SOL     OW 2839   0.518   0.675   2.409 -0.1731  0.2142  0.2625
  947SOL    HW1 2840   0.592   0.640   2.347  1.6234 -1.5669  0.3859
  947SOL    HW2 2841   0.473   0.599   2.460  1.0118  1.8182 -0.4641
  948SOL     OW 2842   1.121   1.276   1.326 -0.1204  0.2472  0.4778
  948SOL    HW1 2843   1.159   1.297   1.232 -0.8728  1.3460 -1.0078
  948SOL    HW2 2844   1.031   1.327   1.341 -1.3973 -2.5166  1.6832
  949SOL     OW 2845   1.099   1.333   3.031 -0.1278 -0.3168  0.3021
  949SOL    HW1 2846   1.087   1.431   3.048  1.0220 -0.0705  0.6865
  949SOL    HW2 2847   1.185   1.319   2.981 -1.6072  1.5948 -1.1474
  950SOL     OW 2848   0.508   0.051   0.258  0.5563  0.7282  0.5162
  950SOL    HW1 2849   0.448   0.103   0.323 -2.0904 -0.4017 -2.1420
  950SOL    HW2 2850   0.456   0.021   0.174 -0.3875  2.6686  0.1317
  951SOL     OW 2851   2.878   2.561   2.301 -0.1270 -0.3736 -0.5878
  951SOL    HW1 2852   2.785   2.584   2.344  0.8574 -1.4289 -0.7085
  951SOL    HW2 2853   2.925   2.650   2.282 -0.6193  0.0827  0.0521
  952SOL     OW 2854   1.297   2.654   0.599  0.3326 -0.3970 -0.0516
  952SOL    HW1 2855   1.205   2.617   0.607  3.1620 -1.4180  0.3498
  952SOL    HW2 2856   1.313   2.718   0.676  1.4967  1.4037 -0.0229
  953SOL     OW 2857   2.422   2.732   0.709 -0.4395 -0.3748 -0.2044
  953SOL    HW1 2858   2.500   2.687   0.760 -0.7820 -1.3695 -1.7647
  953SOL    HW2 2859   2.445   2.733   0.608  0.7708  1.5483 -1.4374
  954SOL     OW 2860   1.932   0.144   0.337 -0.0121 -0.3648 -0.4421
  954SOL    HW1 2861   1.996   0.224   0.320 -2.5020  0.7992  1.4793
  954SOL    HW2 2862   1.889   0.149   0.427  1.2439 -1.4611 -0.4505
  955SOL     OW 2863   0.668   1.285   2.204  0.0773  0.1277 -0.1394
  955SOL    HW1 2864   0.722   1.360   2.240  2.0869 -0.2478  2.1232
  955SOL    HW2 2865   0.706   1.268   2.113 -0.4433  0.9741 -2.8820
  956SOL     OW 2866   0.321   2.985   2.268 -0.0234 -0.5952  0.3238
  956SOL    HW1 2867   0.265   2.906   2.294  0.2328 -0.9195  1.1038
  956SOL    HW2 2868   0.380   2.965   2.188 -4.2764 -0.8172 -1.0886
  957SOL     OW 2869   1.747   2.341   1.270  0.1004  0.3712  0.3607
  957SOL    HW1 2870   1.662   2.348   1.330 -0.9299 -1.9349  0.1788
  957SOL    HW2 2871   1.817   2.416   1.293  1.1623  1.3485  1.3314
  958SOL     OW 2872   1.866   1.692   1.773 -0.0503  0.0890  0.2395
  958SOL    HW1 2873   1.957   1.671   1.812  1.0014  1.9545  1.2887
  958SOL    HW2 2874   1.819   1.762   1.829  1.7188 -0.0438  1.1384
  959SOL     OW 2875   1.086   1.923   1.864  0.1161 -0.0100 -0.2795
  959SOL    HW1 2876   1.162   1.973   1.914 -0.5205  0.8877 -3.0535
  959SOL    HW2 2877   1.116   1.829   1.834  1.1373 -3.0027 -3.2312
  960SOL     OW 2878   0.253   1.298   2.067  0.3205 -0.5080  0.0534
  960SOL    HW1 2879   0.301   1.331   2.150  0.3050  0.2279 -1.8168
  960SOL    HW2 2880   0.208   1.211   2.087  1.0920 -0.1595  0.1275
  961SOL     OW 2881   1.964   0.915   0.324 -0.2472 -0.5043  0.3401
  961SOL    HW1 2882   1.978   0.872   0.415 -0.2307 -1.6318  0.7461
  961SOL    HW2 2883   1.921   0.851   0.256  0.7697  0.8265 -2.9181
  962SOL     OW 2884   0.673   1.207   0.390 -0.6696  0.3533 -0.2728
  962SOL    HW1 2885   0.608   1.282   0.358  0.8975  4.2244 -0.5838
  962SOL    HW2 2886   0.650   1.184   0.487  2.2997  0.5549  1.1315
  963SOL     OW 2887   0.227   1.893   1.167  0.1948  0.3723 -0.1075
  963SOL    HW1 2888   0.295   1.834   1.217 -0.9830 -0.6653  1.1053
  963SOL    HW2 2889   0.137   1.905   1.217 -1.2542  2.2928 -1.0628
  964SOL     OW 2890   1.181   0.007   3.048 -0.2572  0.0518  0.4335
  964SOL    HW1 2891   1.247   0.087   3.035  0.3311  1.6377 -1.6604
  964SOL    HW2 2892   1.209  -0.083   3.009  0.0730 -0.6393  0.8121
  965SOL     OW 2893   1.137   1.420   0.445  0.2335  0.3175 -0.3607
  965SOL    HW1 2894   1.088   1.375   0.367  0.4636  1.9025 -3.4946
  965SOL    HW2 2895   1.210   1.483   0.408  1.3100 -4.9461 -0.3494
  966SOL     OW 2896   2.707   0.599   0.456  0.2011 -0.1864 -0.6855
  966SOL    HW1 2897   2.789   0.656   0.480 -0.5662  0.0488 -0.8408
  966SOL    HW2 2898   2.667   0.624   0.364 -0.2939  0.8533  3.5623
  967SOL     OW 2899   1.026   2.448   2.547  0.8435 -0.2689 -0.1937
  967SOL    HW1 2900   0.946   2.386   2.558  0.3888  0.2691  0.6150
  967SOL    HW2 2901   1.079   2.440   2.631 -1.8114  0.9744  0.9298
  968SOL     OW 2902   1.409   1.820   2.670  0.1297 -0.1057  0.4906
  968SOL    HW1 2903   1.493   1.877   2.678 -0.8529  1.6130  0.5569
  968SOL    HW2 2904   1.321   1.876   2.673 -0.7488  2.4209 -1.1172
  969SOL     OW 2905   0.332   0.855   2.360 -0.2008  0.1323  0.3551
  969SOL    HW1 2906   0.341   0.962   2.369 -0.5713 -3.4877  0.7170
  969SOL    HW2 2907   0.410   0.798   2.401 -0.8937  2.2900  2.4223
  970SOL     OW 2908   1.745   2.119   1.435 -0.2103  0.8302  0.5535
  970SOL    HW1 2909   1.743   2.199   1.371 -1.1485 -0.7753 -1.6567
  970SOL    HW2 2910   1.759   2.032   1.383  1.0288 -1.8015  1.1558
  971SOL     OW 2911   1.112   1.598   3.052 -0.1511  0.5179 -0.2494
  971SOL    HW1 2912   1.032   1.661   3.055  1.0666  0.2362 -1.5290
  971SOL    HW2 2913   1.165   1.613   2.964  0.5195  1.2260  0.2811
  972SOL     OW 2914   0.007   2.355   3.003 -0.4269 -0.2187 -1.0125
  972SOL    HW1 2915  -0.042   2.434   3.042 -0.3691 -1.0030 -0.7477
  972SOL    HW2 2916  -0.038   2.269   3.034  0.2678  1.3047 -0.4505
  973SOL     OW 2917   0.641   2.533   0.659 -0.6836 -0.0651 -0.3519
  973SOL    HW1 2918   0.706   2.591   0.707 -0.2253  0.7319 -0.5999
  973SOL    HW2 2919   0.638   2.431   0.687 -2.2544  0.6963  1.3660
  974SOL     OW 2920   0.298   0.816   1.556 -0.1101  0.3279 -0.5068
  974SOL    HW1 2921   0.393   0.845   1.575  3.2636  1.6278 -1.0682
  974SOL    HW2 2922   0.270   0.872   1.475  0.8217  2.5101  1.4252
  975SOL     OW 2923   0.276   3.006   2.777  0.3666  0.3165 -0.1836
  975SOL    HW1 2924   0.277   2.912   2.739 -0.7281 -2.9178 -0.8483
  975SOL    HW2 2925   0.186   3.054   2.772  2.2578  1.1404  1.7958
  976SOL     OW 2926   1.557   1.204   1.402 -1.1777  0.0430  0.4447
  976SOL    HW1 2927   1.627   1.268   1.444 -1.2738 -1.4104 -0.7816
  976SOL    HW2 2928   1.541   1.248   1.309 -0.1934 -1.6739 -0.3235
  977SOL     OW 2929   1.024   0.763   0.290  0.1229 -0.1705 -0.3236
  977SOL    HW1 2930   1.059   0.671   0.331 -0.1605  0.7833  0.0730
  977SOL    HW2 2931   1.080   0.797   0.216 -2.1854 -1.1822 -0.5483
  978SOL     OW 2932   0.831   2.138   0.338 -0.1775  0.3360 -0.1790
  978SOL    HW1 2933   0.822   2.056   0.275 -0.5042  2.7821  1.8545
  978SOL    HW2 2934   0.913   2.195   0.317 -0.4222 -1.6073  0.2355
  979SOL     OW 2935   2.352   2.950   2.959 -0.5586  0.2109 -0.2350
  979SOL    HW1 2936   2.276   3.018   2.935  0.7356 -1.2517 -0.2060
  979SOL    HW2 2937   2.396   2.982   3.046 -1.9997  0.2942 -2.0954
  980SOL     OW 2938   1.205   0.800   1.633 -0.1202 -0.1627  0.3550
  980SOL    HW1 2939   1.167   0.870   1.566  4.0451  2.2439  1.1243
  980SOL    HW2 2940   1.159   0.712   1.613 -1.5759 -2.0480 -2.4650
  981SOL     OW 2941   2.086   1.914   1.358 -0.1930  0.2887 -0.1080
  981SOL    HW1 2942   2.118   1.943   1.448 -1.2450  0.9190 -0.6698
  981SOL    HW2 2943   2.129   1.824   1.331  2.1611  0.1755 -1.2795
  982SOL     OW 2944   0.427   3.038   2.528 -0.2100  0.3434  0.2483
  982SOL    HW1 2945   0.383   3.031   2.440  0.1319  1.1644  1.2641
  982SOL    HW2 2946   0.363   3.055   2.606 -0.9231  1.0279  0.9761
  983SOL     OW 2947   3.044   2.964   1.445 -0.3137 -0.1432  0.3342
  983SOL    HW1 2948   3.021   3.062   1.457 -3.6384  2.5007  0.2306
  983SOL    HW2 2949   3.073   2.950   1.347 -0.9128  2.2022  1.0397
  984SOL     OW 2950   2.073   0.702   2.736 -0.0595  0.2416 -0.2137
  984SOL    HW1 2951   2.090   0.645   2.648 -0.8535  1.7216  2.0866
  984SOL    HW2 2952   1.979   0.674   2.770  3.5649 -1.5149 -0.3008
  985SOL     OW 2953   1.518   1.919   2.097  0.3838 -0.1114 -0.0633
  985SOL    HW1 2954   1.454   1.986   2.052  1.4797 -2.1838  0.7695
  985SOL    HW2 2955   1.524   1.937   2.201  2.6170 -0.4877  1.6401
  986SOL     OW 2956   1.643   0.262   2.974  0.0009 -0.1217  0.2789
  986SOL    HW1 2957   1.670   0.193   3.047  2.1198 -0.3042 -0.8775
  986SOL    HW2 2958   1.712   0.336   2.969  0.2730 -1.2228  2.7543
  987SOL     OW 2959   0.997   1.844   2.573  0.0186  0.4280  0.7366
  987SOL    HW1 2960   0.902   1.853   2.539  0.8599 -0.2328 -0.5337
  987SOL    HW2 2961   0.997   1.761   2.635  0.1353  0.9412 -2.4222
  988SOL     OW 2962   2.924   0.806   0.374  0.5341 -0.4223 -0.0211
  988SOL    HW1 2963   2.947   0.902   0.387 -0.3129 -1.2346  0.3804
  988SOL    HW2 2964   2.914   0.781   0.275  1.3404  1.4700  0.3146
  989SOL     OW 2965   1.947   2.933   3.023 -0.2886 -0.0914  0.0366
  989SOL    HW1 2966   1.946   2.970   3.122 -3.6283  0.8252 -0.0776
  989SOL    HW2 2967   2.011   2.987   2.969  1.9318 -0.2179 -2.2841
  990SOL     OW 2968   2.394   0.637   0.015 -0.3004  0.1459  0.4452
  990SOL    HW1 2969   2.471   0.675  -0.039  1.6148  1.6518  0.3070
  990SOL    HW2 2970   2.304   0.655  -0.029  0.6410  1.2656 -0.4271
  991SOL     OW 2971   0.855   0.974   0.031 -0.3168 -0.3989 -0.0251
  991SOL    HW1 2972   0.879   1.036  -0.044  2.3757 -2.7753 -0.3452
  991SOL    HW2 2973   0.857   1.027   0.118  1.0097  1.2523  0.3951
  992SOL     OW 2974   1.487   1.899   0.038 -0.1743 -0.6945 -0.1299
  992SOL    HW1 2975   1.459   1.846   0.123 -3.1253  1.0784 -1.2437
  992SOL    HW2 2976   1.407   1.943  -0.008  2.5795 -2.2697  0.8843
  993SOL     OW 2977   0.532   1.875   1.136 -0.0398 -0.0437  0.2524
  993SOL    HW1 2978   0.511   1.776   1.147 -1.6691 -0.9107  0.7953
  993SOL    HW2 2979   0.483   1.905   1.051  3.3343  2.0142 -1.6857
  994SOL     OW 2980   2.734   1.329   1.849  0.3637 -0.0036  0.1262
  994SOL    HW1 2981   2.795   1.412   1.837  1.4392 -3.5448  0.4766
  994SOL    HW2 2982   2.768   1.254   1.902  3.1355  2.6243  0.0553
  995SOL     OW 2983   2.923   0.132   0.221  0.2644  0.2813 -0.3153
  995SOL    HW1 2984   2.993   0.143   0.150 -0.2917  2.6100  0.5713
  995SOL    HW2 2985   2.840   0.076   0.189 -0.5410  2.5700 -0.1982
  996SOL     OW 2986   1.907   2.756   2.846  0.0375  0.2818 -0.3018
  996SOL    HW1 2987   1.923   2.834   2.911 -1.2046 -1.4460 -1.3122
  996SOL    HW2 2988   1.962   2.677   2.873  0.6418  1.3095  0.7224
  997SOL     OW 2989   0.629   1.602   2.086 -0.4424  0.2255  0.2181
  997SOL    HW1 2990   0.573   1.658   2.148 -1.3017  0.6628 -1.1228
  997SOL    HW2 2991   0.565   1.545   2.029  1.0285  0.7158 -3.0201
  998SOL     OW 2992   2.861   2.693   1.198  0.0357 -0.1623 -0.1870
  998SOL    HW1 2993   2.957   2.694   1.164  0.2103 -0.2814 -1.3017
  998SOL    HW2 2994   2.795   2.685   1.118  0.1861  2.3594 -1.0480
  999SOL     OW 2995   1.559   3.044   2.668 -0.0986  0.0683  0.1763
  999SOL    HW1 2996   1.515   2.995   2.589 -1.3198  0.5113  1.6064
  999SOL    HW2 2997   1.546   2.993   2.754 -1.2785  0.5292 -0.0507
 1000SOL     OW 2998   0.639   2.950   0.829  0.3177 -0.1662 -0.1199
 1000SOL    HW1 2999   0.576   2.989   0.901  0.4386  0.1458  0.2013
 1000SOL    HW2 3000   0.615   2.972   0.737 -0.1875  0.8340 -1.1572
   3.09554   3.09554   3.09554
